<LesHouchesEvents version="1.0">
<header>
<!--
#*********************************************************************
#                                                                    *
#                       MadGraph/MadEvent                            *
#                                                                    *
#                      The new web generation                        *
#                                                                    *
#                   http://madgraph.hep.uiuc.edu                     *
#                   http://madgraph.phys.ucl.ac.be                   *
#                   http://madgraph.roma2.infn.it                    *
#                                                                    *
#            CP3 team                      Tim Stelzer               *
#      Universite de Louvain          University of Illinois         *
#                                                                    *
#....................................................................*
#                                                                    *
# This file contains all the information necessary to reproduce      *
# the events generated:                                              *
#                                                                    *
# 1. software version                                                *
# 2. proc_card.dat      : code generation info including model       *
# 3. param_card.dat     : model primary parameters in the LH format  *
# 4. run_card.dat       : running parameters (collider and cuts)     *
# 5. pythia_card.dat    : present only in the pythia event file      *
# 6. pgs_card.dat       : present only in the pgs event file         *
#                                                                    *
#                                                                    *
#*********************************************************************
-->
<MGVersion>
# MG/ME version    : 4.4.17
# madgraph version : 4.4.2
# template version : 2.4.8
# helas version    : 3.5
# model version    : usrmod_1.0.4
</MGVersion>
<MGProcCard>
#*********************************************************************
#                        MadGraph/MadEvent                           *
#                   http://madgraph.hep.uiuc.edu                     *
#                                                                    *
#                          proc_card.dat                             *
#                                                                    *
# This file is used to generate the code for a specific process.     *
# Some notation/conventions:                                         *
#                                                                    *
# 0. Do not modify the TAGS and their order.                         *
# 1. hash/pound is a comment.                                        *
# 2. The number after the @ is used as an identifier for the class   *
#    of processes. It can be any positive integer.                   *
# 3. The number of lines for the max couplings depends on how many   *
#    different classes of couplings are present in the model         *
#    In the SM these are just two: QED (which include EW) and QCD    *
# 4. Write "end_coup" after  the couplings list,                     *
#    to tell MG that the couplings input is over.                    *
# 5. Write "done" after the proc list to                             *
#    to tell MG that the proc input is over.                         *
# 6. Some model names available at present are:                      *
#    sm     =  Standard Model                                        *
#    smckm =  Standard Model with Cabibbo matrix                     *
#    mssm   =  Minimal Supersymmetric Standard Model                 *
#    2hdm   =  Generic Two Higgs Doublet model                       *
#    heft   =  Higgs EFT (+Standard Model)                           *
#    usrmod =  User Model                                            *
# 7. Don't leave spaces between the particles name in the            *
#    definition of the multiparticles.                               *
#*********************************************************************
#*********************************************************************
# Process(es) requested : mg2 input                                  *
#*********************************************************************
# Begin PROCESS # This is TAG. Do not modify this line
e- N+ > e- N+ f+ f-      # Radiative
QCD=0             # Max QCD couplings
QED=1             # Max QED couplings
QFD=0 
QND=1
QWD=9
QDS=2
end_coup           # End the couplings input
done               # this tells MG there are no more procs
# End PROCESS  # This is TAG. Do not modify this line
#*********************************************************************
# Model information                                                  *
#*********************************************************************
# Begin MODEL  # This is TAG. Do not modify this line
fixedAP2     
# End   MODEL  # This is TAG. Do not modify this line
#*********************************************************************
# Start multiparticle definitions                                    *
#*********************************************************************
# Begin MULTIPARTICLES # This is TAG. Do not modify this line
P uu~cc~dd~ss~gf+f-
J uu~cc~dd~ss~gf+f-
L+ e+mu+
L- e-mu-
vl vevm
vl~ ve~vm~
# End  MULTIPARTICLES # This is TAG. Do not modify this line
</MGProcCard>
<slha>
#*********************************************************************
#                        MadGraph/MadEvent                           *
#                   http://madgraph.hep.uiuc.edu                     *
#                                                                    *
#                         param_card.dat                             *
#                                                                    *
#   Les Houches friendly file for the SM parameters of MadGraph      *
#        Spectrum and decay widths produced by SMCalc                *
#                                                                    *
#  Please note the following IMPORTANT issues:                       *
#                                                                    *
# 0. REFRAIN from editing this file by hand! Some of the parame-     *
#    ters are not independent                                        *
#    (such as G_Fermi, alpha_em, sin(theta_W),MZ,MW) and serious     *
#    problems might be encountered (such as violation of unitarity   *
#    or gauge invariance).  Always use a calculator.                 *
#                                                                    *
# 1. alpha_S(MZ) has been used in the calculation of the parameters  *
#    but, for consistency, it will be reset by madgraph to the       *
#    value expected IF the pdfs for collisions with hadrons are      *
#    used. This value is KEPT by madgraph when no pdf are used       *
#    lpp(i)=0 .                                                      *
#                                                                    *
#  2. Values of the charm and bottom kinematic (pole) masses are     *
#     those used in the matrix elements and phase space UNLESS they  *
#     are set to ZERO from the start in the model (particles.dat)    *
#     This happens, for example,  when using 5-flavor QCD where      *
#     charm and bottom are treated as partons in the initial state   *
#     and a zero mass might be hardwired in the model definition.    *
#                                                                    *
##********************************************************************
Block MODSEL # Select Model
     0   1   #  0 1 = SM
Block SMINPUTS      # Standard Model inputs
     1         1.27900000E+02   # alpha_em(MZ)(-1) SM MSbar
     2         1.16600000E-05   # G_Fermi
     3         1.18000000E-01   # alpha_s(MZ) SM MSbar
     4         9.15445065E+01   # Z mass (as input parameter)
Block MGYUKAWA     # Yukawa masses m/v=y/sqrt(2)
#    PDG          YMASS
     5         4.20000000E+00   # mbottom for the Yukawa  y_b
     4         1.25000000E+00   # mcharm  for the Yukawa  y_c
     6         1.74300000E+02   # mtop    for the Yukawa  y_t
    15         1.77700000E+00   # mtau    for the Yukawa  y_ta
Block MGCKM     # CKM elements for MadGraph
     1   1     9.75000000E-01   # Vud for Cabibbo matrix
#===========================================================
# QUANTUM NUMBERS OF NEW STATE(S) (NON SM PDG CODE) IF ANY
# (see below for masses and decay tables)
# These blocks are automatically created by the MadGraph
# qnumbers.pl script from the particles.dat model file
#===========================================================
BLOCK QNUMBERS 611 # f-
         1  -3 # 3 times electric charge
         2  1 # number of spin states (2S+1)
         3  1 # colour rep (1: singlet, 3: triplet, 8: octet)
         4  1 # Particle/Antiparticle distinction (0=own anti)
BLOCK QNUMBERS 622 # x
         1  0 # 3 times electric charge
         2  3 # number of spin states (2S+1)
         3  1 # colour rep (1: singlet, 3: triplet, 8: octet)
         4  0 # Particle/Antiparticle distinction (0=own anti)
BLOCK QNUMBERS 623 # N-
         1  0 # 3 times electric charge
         2  2 # number of spin states (2S+1)
         3  1 # colour rep (1: singlet, 3: triplet, 8: octet)
         4  1 # Particle/Antiparticle distinction (0=own anti)
# END of QNUMBERS blocks
#===========================================================
Block MASS      #  Mass spectrum (kinematic masses)
#       PDG       Mass
         4     1.40000000E+00   # charm    pole mass
         5     4.20000000E+00   # bottom   pole mass
         6     1.74300000E+02   # top      pole mass
        11     0.51109989E-03   # electron mass
        13     0.10565837E+00   # muon     mass
        15     1.77700000E+00   # tau      mass
        23     9.15445065E+01   # Z        mass
        24     8.02673592E+01   # W        mass
        25     1.20000000E+02   # H        mass
       611     10E-3            # FMASS                #This is the chi mass in GeV
       622     100E-3           # APMASS			   #This is the A' mass in GeV
       623     2.51267000e+01   # HPMASS (aluminum)    #This is the nucleus mass in GeV (material of the beam dump)
#            PDG       Width
DECAY       611     0.00000000e+00   # ELWIDTH
DECAY       622     0.01             # APWIDTH
DECAY       623     0.00000000e+00   # HPWIDTH
DECAY         6     1.51013490E+00   # top width
DECAY        23     2.44639985E+00   # Z   width
DECAY        24     2.03535570E+00   # W   width
DECAY        25     6.79485838E-03   # H   width
#        BR           NDA        ID1       ID2
     7.00588389E-02    2           4        -4   # BR( H -> c  cbar  )
     7.61074375E-01    2           5        -5   # BR( H -> b  bbar  )
     0.00000000E+00    2           6        -6   # BR( H -> t  tbar  )
     3.65529942E-02    2          15       -15   # BR( H -> tau- tau+)
     5.84716539E-03    2          23        23   # BR( H -> Z   Z^(*))
     6.31545979E-02    2          24       -24   # BR( H -> W   W^(*))
     2.55499652E-02    2          21        21   # BR( H -> g   g    )
     1.20906932E-03    2          22        22   # BR( H -> A   A    )
BLOCK MGUSER
         1     3.87000000e-04   # epsilon ,mixing coefficient
         2     1.00000000e-00   # alphaD  ,the interaction aprime-chi
         3     13.0000000e+00   # Znuc    ,nuclear charge
</slha>
<MGRunCard>
#*********************************************************************
#                       MadGraph/MadEvent                            *
#                  http://madgraph.hep.uiuc.edu                      *
#                                                                    *
#                        run_card.dat                                *
#                                                                    *
#  This file is used to set the parameters of the run.               *
#                                                                    *
#  Some notation/conventions:                                        *
#                                                                    *
#   Lines starting with a '# ' are info or comments                  *
#                                                                    *
#   mind the format:   value    = variable     ! comment             *
#*********************************************************************
#
#*******************                                                 
# Running parameters
#*******************                                                 
#                                                                    
#*********************************************************************
# Tag name for the run (one word)                                    *
#*********************************************************************
  'HPS'     = run_tag ! name of the run 
#*********************************************************************
# Run to generate the grid pack                                      *
#*********************************************************************
  .false.     = gridpack  !True = setting up the grid pack
#*********************************************************************
# Number of events and rnd seed                                      *
#*********************************************************************
   20000      = nevents ! Number of unweighted events requested 
     322 = iseed   ! rnd seed (0=assigned automatically=default))
#*********************************************************************
# Collider type and energy                                           *
#*********************************************************************
        0     = lpp1  ! beam 1 type (0=NO PDF)
        0     = lpp2  ! beam 2 type (0=NO PDF)
    12.0       = ebeam1  ! beam 1 energy in GeV
    25.1267    = ebeam2  ! beam 2 energy in GeV
    0.000511  = mbeam1  ! beam 1 energy in GeV
    25.1267    = mbeam2  ! beam 2 energy in GeV
#*********************************************************************
# Beam polarization from -100 (left-handed) to 100 (right-handed)    *
#*********************************************************************
        0     = polbeam1 ! beam polarization for beam 1
        0     = polbeam2 ! beam polarization for beam 2
#*********************************************************************
# PDF CHOICE: this automatically fixes also alpha_s and its evol.    *
#*********************************************************************
 'cteq6l1'    = pdlabel     ! PDF set                                     
#*********************************************************************
# Renormalization and factorization scales                           *
#*********************************************************************
 F        = fixed_ren_scale  ! if .true. use fixed ren scale
 F        = fixed_fac_scale  ! if .true. use fixed fac scale
 91.1880  = scale            ! fixed ren scale
 91.1880  = dsqrt_q2fact1    ! fixed fact scale for pdf1
 91.1880  = dsqrt_q2fact2    ! fixed fact scale for pdf2
 1        = scalefact        ! scale factor for event-by-event scales
 F        = fixed_couplings  ! if .false. calc. coupl. for every event
#*********************************************************************
# Matching - Warning! ickkw > 0 is still beta
#*********************************************************************
 0        = ickkw            ! 0 no matching, 1 MLM, 2 CKKW matching
#*********************************************************************
#                                                                    
#**********************************
# BW cutoff (M+/-bwcutoff*Gamma)
#**********************************
  3.0  = bwcutoff
#*******************                                                 
# Fixed-Target Cuts DO NOT TOUCH!!!!!
# Read below about xthetaxfmin,xthetaxfmax,xthetayfmin,xthetayfmax
#*******************                                                 
 0.0 = ef        ! minimum E for all f's
 100.0 = efmax     ! maximum E for all f's
 0.0 = thetafmin ! min angle for both f's
 100.0 = thetafmax ! max angle for both f's
 0.0 = thetaxfmin ! min angle (x direction) for both f's
 100.0 = thetaxfmax ! max angle (x direction) for both f's 
 0.0 = thetayfmin ! min angle (y direction) for both f's
 100.0 = thetayfmax ! max angle (y direction) for both f's 
 0.0 = xthetaxfmin ! min angle (x direction) for >=1 f's
 100.0 = xthetaxfmax ! max angle (x direction) for >=1 f's 
 0.0 = xthetayfmin ! min angle (y direction) for >=1 f's
 100.0 = xthetayfmax ! max angle (y direction) for >=1 f's 
 0.0 = mmff      ! min invariant mass of f+f- lepton pair
 100.0 = mmffmax  ! max invariant mass of f+f- lepton pair
 0.0 = xef       ! min. energy for at least one f
 0.0 = xthetaf   ! minimum angle for at least one f
 0.0 = eftot     ! minimum energy for the two f's
 0d0 = efrat     ! min. ratio Emin/Emax for the two f's
 0.0  = el     !!! 0.2 = el  !!! was 0.05 with normal cuts! minimum E for the charged leptons 
 0.0  = drll  !!! was 0.1  ! min distance between leptons 
 0.0  = mmll    ! min invariant mass of l+l- (same flavour) lepton pair
#*******************                                                 
# BDX cuts
# DO NOT TOUCH THIS COMMENT.
# In the following, the fiducial volume 
# for the BDX experiment is defined.
# ALL LENGTHS IN m
# The fiducial volume is a parallelepiped:
#                                                             _ x 
#                                 _____________           y^  /|
#         ______                 |             |           | /
#        |      |                |             |           |/
# e- --> | DUMP |                |   Fiducial  |           -----> z
#        |______|                |    volume   |
#                                |_____________|
#
# These cuts are not used in MadGraph,
# when the chi is generated, but ONLY after,
# when the interaction with the proton/electron/inelastic
# is considered.
# However, they're here to keep them inside the run_card.dat file,
# and to have them in the .lhe files.
# MADGRAPH does use the following:
#  xthetaxfmin, xthetaxfmax, xthetayfmin, ythetayfmax 
#
# However, it is highly recommended that these are left as they're before, because MADGRAPH 
# can have problems handling a tight cut with the process kinematics.
# 
# 
#*******************                                                 
#<BDX> DO NOT TOUCH THIS TAG
  20.0 = ldet ! distance between beam-dump front face and fiducial volume front face in meters
  1.0  = fiduciallz   ! fiducial volume length along z (along primary beam axis) in meters 
  1.0  = fiducially   ! fiducial volume length along y (vertical) in meters
  1.0  = fiduciallx   ! fiducial volume length along x in meters
  2    = procid ! which process to simulate after MADGRAPH: 0 none, 1 proton elastic, 2 electron elastic, 3 inelastic
  1E-3 = pTHR ! The recoil proton kinetic energy threshold GeV. Used only in the second stage (after MADGRAPH)
  1E-3 = eTHR ! The recoil electron kinetic energy threshold GeV. Used only in the second stage (after MADGRAPH)
  2.41E23 = NDET ! The number of scatter centers per unit of volume in the detector (cm^-3), Nav/A * rho * Z (valid both for e- scattering and quasi-elastic)
  6.02E22  = NDUMP ! The number of scatter centers per unit of volume in the dump (cm^-3), Nav/A * rho (if we consider the interaction with the dump nuclei as a whole)
  8.9   = LDUMP ! The effective dump length (cm), usually 1 radiation lenght is ok 
#</BDX> DO NOT TOUCH THIS TAG
#
#*******************                                                 
# Standard Cuts
#*******************                                                 
#                                                                    
#*********************************************************************
# Minimum and maximum pt's                                           *
#*********************************************************************
  0  = ptj       ! minimum pt for the jets 
  0  = ptb       ! minimum pt for the b 
  0  = pta       ! minimum pt for the photons 
  0  = ptl       ! minimum pt for the charged leptons 
  0  = misset    ! minimum missing Et (sum of neutrino's momenta)
  0  = ptheavy   ! minimum pt for one heavy final state
 1.0 = ptonium   ! minimum pt for the quarkonium states
 1d5 = ptjmax    ! maximum pt for the jets
 1d5 = ptbmax    ! maximum pt for the b
 1d5 = ptamax    ! maximum pt for the photons
 1d9 = ptlmax    ! maximum pt for the charged leptons
 1d9 = missetmax ! maximum missing Et (sum of neutrino's momenta)
#*********************************************************************
# Minimum and maximum E's (in the lab frame)                         *
#*********************************************************************
  0  = ej     ! minimum E for the jets 
  0  = eb     ! minimum E for the b 
  0  = ea     ! minimum E for the photons 
 1d5  = ejmax ! maximum E for the jets
 1d5  = ebmax ! maximum E for the b
 1d5  = eamax ! maximum E for the photons
 1d9  = elmax ! maximum E for the charged leptons
#*********************************************************************
# Maximum and minimum rapidity                                       *
#*********************************************************************
 1d5  = etaj    ! max rap for the jets 
 1d5  = etab    ! max rap for the b 
 1d5  = etaa    ! max rap for the photons 
 1d5  = etal     !!! 1(2) wth cuts ! max rap for the charged leptons 
 1d5  = etafl     !!! 0(1) wth cuts ! max rap for the charged leptons 
 0.0  = etaonium ! max rap for the quarkonium states
 0d0  = etajmin ! min rap for the jets
 0d0  = etabmin ! min rap for the b
 0d0  = etaamin ! min rap for the photons
 0d0  = etalmin ! main rap for the charged lepton
#*********************************************************************
# Minimum and maximum DeltaR distance                                *
#*********************************************************************
 0   = drjj    ! min distance between jets 
 0   = drbb    ! min distance between b's 
 0   = draa    ! min distance between gammas 
 0   = drbj    ! min distance between b and jet 
 0   = draj    ! min distance between gamma and jet 
 0   = drjl    ! min distance between jet and lepton 
 0   = drab    ! min distance between gamma and b 
 0   = drbl    ! min distance between b and lepton 
 0   = dral    ! min distance between gamma and lepton 
 1d2 = drjjmax ! max distance between jets
 1d2 = drbbmax ! max distance between b's
 1d9 = drllmax ! max distance between leptons
 1d2 = draamax ! max distance between gammas
 1d2 = drbjmax ! max distance between b and jet
 1d2 = drajmax ! max distance between gamma and jet
 1d2 = drjlmax ! max distance between jet and lepton
 1d2 = drabmax ! max distance between gamma and b
 1d2 = drblmax ! max distance between b and lepton
 1d2 = dralmax ! maxdistance between gamma and lepton
#*********************************************************************
# Minimum and maximum invariant mass for pairs                       *
#*********************************************************************
 0   = mmjj    ! min invariant mass of a jet pair 
 0   = mmbb    ! min invariant mass of a b pair 
 0   = mmaa    ! min invariant mass of gamma gamma pair
 1d5 = mmjjmax ! max invariant mass of a jet pair
 1d5 = mmbbmax ! max invariant mass of a b pair
 1d5 = mmaamax ! max invariant mass of gamma gamma pair
 1d5 = mmllmax ! max invariant mass of l+l- (same flavour) lepton pair
#*********************************************************************
# Minimum and maximum invariant mass for all letpons                 *
#*********************************************************************
 0   = mmnl    ! min invariant mass for all letpons (l+- and vl) 
 1d9 = mmnlmax ! max invariant mass for all letpons (l+- and vl) 
#*********************************************************************
# Inclusive cuts                                                     *
#*********************************************************************
 0  = xptj ! minimum pt for at least one jet  
 0  = xptb ! minimum pt for at least one b 
 0  = xpta ! minimum pt for at least one photon 
 0  = xptl ! minimum pt for at least one charged lepton 
#*********************************************************************
# Control the pt's of the jets sorted by pt                          *
#*********************************************************************
 0   = ptj1min ! minimum pt for the leading jet in pt
 0   = ptj2min ! minimum pt for the second jet in pt
 0   = ptj3min ! minimum pt for the third jet in pt
 0   = ptj4min ! minimum pt for the fourth jet in pt
 1d5 = ptj1max ! maximum pt for the leading jet in pt 
 1d5 = ptj2max ! maximum pt for the second jet in pt
 1d5 = ptj3max ! maximum pt for the third jet in pt
 1d5 = ptj4max ! maximum pt for the fourth jet in pt
 0   = cutuse  ! reject event if fails any (0) / all (1) jet pt cuts
#*********************************************************************
# Control the Ht(k)=Sum of k leading jets                            *
#*********************************************************************
 0   = htjmin ! minimum jet HT=Sum(jet pt)
 1d5 = htjmax ! maximum jet HT=Sum(jet pt)
 0   = ht2min ! minimum Ht for the two leading jets
 0   = ht3min ! minimum Ht for the three leading jets
 0   = ht4min ! minimum Ht for the four leading jets
 1d5 = ht2max ! maximum Ht for the two leading jets
 1d5 = ht3max ! maximum Ht for the three leading jets
 1d5 = ht4max ! maximum Ht for the four leading jets
#*********************************************************************
# WBF cuts                                                           *
#*********************************************************************
 0   = xetamin ! minimum rapidity for two jets in the WBF case  
 0   = deltaeta ! minimum rapidity for two jets in the WBF case 
#*********************************************************************
# maximal pdg code for quark to be considered as a jet               *
# otherwise b cuts are applied                                       *
#*********************************************************************
 4 = maxjetflavor
#*********************************************************************
# Jet measure cuts                                                   *
#*********************************************************************
 0   = xqcut   ! minimum kt jet measure between partons
#*********************************************************************
</MGRunCard>
<MGGenerationInfo>
#  Number of Events        :        3770
#  Integrated weight (pb)  :  .23399E+02
#  Truncated wgt (pb)      :  .10958E+00
#  Unit wgt                :  .62066E-02
</MGGenerationInfo>
</header>
<init>
       11     -623  0.12000000000E+02  0.25126700000E+02 0 0     0     0 3  1
  0.11275957281E+02  0.00000000000E+00  0.62066312997E-02   0
</init>
<event>
 7   0  0.6206631E-02  0.9118800E+02  0.7818608E-02  0.1180000E+00
       11   -1    0    0    0    0  0.00000000000E+00  0.00000000000E+00  0.11999999989E+02  0.12000000000E+02  0.51109989000E-03 0. -1.
     -623   -1    0    0    0    0  0.00000000000E+00  0.00000000000E+00  0.42561509872E-11  0.25126700000E+02  0.25126700000E+02 0. -1.
      622    2    1    2    0    0 -0.25216216099E-01 -0.42540995003E-02  0.10669038229E+02  0.10669689466E+02  0.11507658206E+00 0.  0.
       11    1    1    2    0    0  0.19662590990E-02 -0.16529147330E-01  0.13301869257E+01  0.13302911702E+01  0.51109989000E-03 0. -1.
     -623    1    1    2    0    0  0.23249957000E-01  0.20783246830E-01  0.77483478764E-03  0.25126719364E+02  0.25126700000E+02 0. -1.
     -611    1    3    3    0    0 -0.42160247669E-03  0.35190919253E-01  0.86922015175E+01  0.86922785160E+01  0.10000000000E-01 0. -1.
      611    1    3    3    0    0 -0.24794613623E-01 -0.39445018754E-01  0.19768367111E+01  0.19774109499E+01  0.10000000000E-01 0.  1.
</event>
<event>
 7   0  0.6206631E-02  0.9118800E+02  0.7818608E-02  0.1180000E+00
       11   -1    0    0    0    0  0.00000000000E+00  0.00000000000E+00  0.11999999989E+02  0.12000000000E+02  0.51109989000E-03 0.  1.
     -623   -1    0    0    0    0  0.00000000000E+00  0.00000000000E+00  0.42561509872E-11  0.25126700000E+02  0.25126700000E+02 0.  1.
      622    2    1    2    0    0  0.10599699234E-01  0.55312873785E-02  0.11588141893E+02  0.11588959212E+02  0.13711354794E+00 0.  0.
       11    1    1    2    0    0 -0.32931538878E-02 -0.15294604478E-02  0.41102303751E+00  0.41103939312E+00  0.51109989000E-03 0.  1.
     -623    1    1    2    0    0 -0.73065453459E-02 -0.40018269307E-02  0.83505812677E-03  0.25126701395E+02  0.25126700000E+02 0.  1.
     -611    1    3    3    0    0 -0.31459142124E-01  0.52393922795E-01  0.33621876080E+01  0.33627578433E+01  0.10000000000E-01 0. -1.
      611    1    3    3    0    0  0.42058841357E-01 -0.46862635417E-01  0.82259542854E+01  0.82262013687E+01  0.10000000000E-01 0.  1.
</event>
<event>
 7   0  0.6206631E-02  0.9118800E+02  0.7818608E-02  0.1180000E+00
       11   -1    0    0    0    0  0.00000000000E+00  0.00000000000E+00  0.11999999989E+02  0.12000000000E+02  0.51109989000E-03 0.  1.
     -623   -1    0    0    0    0  0.00000000000E+00  0.00000000000E+00  0.42561509872E-11  0.25126700000E+02  0.25126700000E+02 0. -1.
      622    2    1    2    0    0 -0.23026104638E-01 -0.19689736376E-01  0.11018262145E+02  0.11018694046E+02  0.92735619194E-01 0.  0.
       11    1    1    2    0    0  0.19623638933E-01  0.24373953179E-01  0.98080609378E+00  0.98130526933E+00  0.51109989000E-03 0.  1.
     -623    1    1    2    0    0  0.34024657049E-02 -0.46842168029E-02  0.93174988837E-03  0.25126700684E+02  0.25126700000E+02 0. -1.
     -611    1    3    3    0    0 -0.86287271859E-02  0.20230055546E-01  0.86309444166E+01  0.86309782315E+01  0.10000000000E-01 0.  1.
      611    1    3    3    0    0 -0.14397377452E-01 -0.39919791922E-01  0.23873177289E+01  0.23877158149E+01  0.10000000000E-01 0. -1.
</event>
<event>
 7   0  0.6206631E-02  0.9118800E+02  0.7818608E-02  0.1180000E+00
       11   -1    0    0    0    0  0.00000000000E+00  0.00000000000E+00  0.11999999989E+02  0.12000000000E+02  0.51109989000E-03 0.  1.
     -623   -1    0    0    0    0  0.00000000000E+00  0.00000000000E+00  0.42561509872E-11  0.25126700000E+02  0.25126700000E+02 0. -1.
      622    2    1    2    0    0 -0.14464520052E-02 -0.31047471823E-02  0.11995557176E+02  0.11995980068E+02  0.10066829504E+00 0.  0.
       11    1    1    2    0    0 -0.16986033851E-03  0.32294124537E-02  0.23322819251E-02  0.40197909704E-02  0.51109989000E-03 0.  1.
     -623    1    1    2    0    0  0.16163123437E-02 -0.12466527132E-03  0.21105314371E-02  0.25126700141E+02  0.25126700000E+02 0. -1.
     -611    1    3    3    0    0  0.31775188240E-01 -0.19215234108E-01  0.21197207738E+01  0.21200695853E+01  0.10000000000E-01 0.  1.
      611    1    3    3    0    0 -0.33221640245E-01  0.16110486925E-01  0.98758364020E+01  0.98759104827E+01  0.10000000000E-01 0. -1.
</event>
<event>
 7   0  0.6206631E-02  0.9118800E+02  0.7818608E-02  0.1180000E+00
       11   -1    0    0    0    0  0.00000000000E+00  0.00000000000E+00  0.11999999989E+02  0.12000000000E+02  0.51109989000E-03 0.  1.
     -623   -1    0    0    0    0  0.00000000000E+00  0.00000000000E+00  0.42561509872E-11  0.25126700000E+02  0.25126700000E+02 0. -1.
      622    2    1    2    0    0  0.13507281003E-01  0.41392584263E-02  0.10669938496E+02  0.10670393783E+02  0.97552017045E-01 0.  0.
       11    1    1    2    0    0 -0.13018631259E-01 -0.45162626755E-02  0.13295346989E+01  0.13296062041E+01  0.51109989000E-03 0.  1.
     -623    1    1    2    0    0 -0.48864974417E-03  0.37700424923E-03  0.52679451334E-03  0.25126700013E+02  0.25126700000E+02 0. -1.
     -611    1    3    3    0    0 -0.20309039473E-01 -0.95647355979E-02  0.78852941305E+00  0.78891227427E+00  0.10000000000E-01 0. -1.
      611    1    3    3    0    0  0.33816320477E-01  0.13703994024E-01  0.98814090827E+01  0.98814815085E+01  0.10000000000E-01 0.  1.
</event>
<event>
 7   0  0.6206631E-02  0.9118800E+02  0.7818608E-02  0.1180000E+00
       11   -1    0    0    0    0  0.00000000000E+00  0.00000000000E+00  0.11999999989E+02  0.12000000000E+02  0.51109989000E-03 0.  1.
     -623   -1    0    0    0    0  0.00000000000E+00  0.00000000000E+00  0.42561509872E-11  0.25126700000E+02  0.25126700000E+02 0.  1.
      622    2    1    2    0    0 -0.25324974836E-01 -0.23228360582E-01  0.10402800612E+02  0.10403235848E+02  0.88739032621E-01 0.  0.
       11    1    1    2    0    0  0.26244674681E-01  0.25305323476E-01  0.15963477003E+01  0.15967640351E+01  0.51109989000E-03 0.  1.
     -623    1    1    2    0    0 -0.91969984509E-03 -0.20769628936E-02  0.85167659940E-03  0.25126700117E+02  0.25126700000E+02 0.  1.
     -611    1    3    3    0    0 -0.41207157957E-01  0.78113704611E-03  0.90190069326E+01  0.90191066459E+01  0.10000000000E-01 0.  1.
      611    1    3    3    0    0  0.15882183122E-01 -0.24009497628E-01  0.13837936796E+01  0.13841292018E+01  0.10000000000E-01 0. -1.
</event>
<event>
 7   0  0.6206631E-02  0.9118800E+02  0.7818608E-02  0.1180000E+00
       11   -1    0    0    0    0  0.00000000000E+00  0.00000000000E+00  0.11999999989E+02  0.12000000000E+02  0.51109989000E-03 0.  1.
     -623   -1    0    0    0    0  0.00000000000E+00  0.00000000000E+00  0.42561509872E-11  0.25126700000E+02  0.25126700000E+02 0. -1.
      622    2    1    2    0    0 -0.30942233956E-02  0.26064430120E-01  0.11655245190E+02  0.11656575422E+02  0.17412987863E+00 0.  0.
       11    1    1    2    0    0  0.18818703607E-01 -0.32994297789E-01  0.34131102264E+00  0.34341846585E+00  0.51109989000E-03 0.  1.
     -623    1    1    2    0    0 -0.15724480211E-01  0.69298676691E-02  0.34437767829E-02  0.25126706112E+02  0.25126700000E+02 0. -1.
     -611    1    3    3    0    0  0.16050573288E-01  0.87560437014E-01  0.37831395731E+01  0.37841999789E+01  0.10000000000E-01 0. -1.
      611    1    3    3    0    0 -0.19144796683E-01 -0.61496006894E-01  0.78721056166E+01  0.78723754434E+01  0.10000000000E-01 0.  1.
</event>
<event>
 7   0  0.6206631E-02  0.9118800E+02  0.7818608E-02  0.1180000E+00
       11   -1    0    0    0    0  0.00000000000E+00  0.00000000000E+00  0.11999999989E+02  0.12000000000E+02  0.51109989000E-03 0.  1.
     -623   -1    0    0    0    0  0.00000000000E+00  0.00000000000E+00  0.42561509872E-11  0.25126700000E+02  0.25126700000E+02 0.  1.
      622    2    1    2    0    0 -0.44481013489E-03 -0.16337978528E-02  0.11254320388E+02  0.11254881988E+02  0.11242021752E+00 0.  0.
       11    1    1    2    0    0 -0.20174263860E-02  0.27824580104E-02  0.74510975722E+00  0.74511785887E+00  0.51109989000E-03 0.  1.
     -623    1    1    2    0    0  0.24622365209E-02 -0.11486601577E-02  0.56984432509E-03  0.25126700153E+02  0.25126700000E+02 0.  1.
     -611    1    3    3    0    0  0.51895925503E-01 -0.18826019945E-01  0.60682573127E+01  0.60685166572E+01  0.10000000000E-01 0.  1.
      611    1    3    3    0    0 -0.52340735638E-01  0.17192222092E-01  0.51860630749E+01  0.51863653306E+01  0.10000000000E-01 0. -1.
</event>
<event>
 7   0  0.6206631E-02  0.9118800E+02  0.7818608E-02  0.1180000E+00
       11   -1    0    0    0    0  0.00000000000E+00  0.00000000000E+00  0.11999999989E+02  0.12000000000E+02  0.51109989000E-03 0. -1.
     -623   -1    0    0    0    0  0.00000000000E+00  0.00000000000E+00  0.42561509872E-11  0.25126700000E+02  0.25126700000E+02 0.  1.
      622    2    1    2    0    0  0.63614246498E-03 -0.16043401368E-01  0.11740413594E+02  0.11740725236E+02  0.84023385402E-01 0.  0.
       11    1    1    2    0    0  0.22427943515E-02  0.20003997280E-01  0.25849118362E+00  0.25927426264E+00  0.51109989000E-03 0. -1.
     -623    1    1    2    0    0 -0.28789368165E-02 -0.39605959119E-02  0.10952117459E-02  0.25126700501E+02  0.25126700000E+02 0.  1.
     -611    1    3    3    0    0  0.22881287581E-01 -0.31430736608E-01  0.99370613321E+01  0.99371424143E+01  0.10000000000E-01 0. -1.
      611    1    3    3    0    0 -0.22245145116E-01  0.15387335240E-01  0.18033522616E+01  0.18035828221E+01  0.10000000000E-01 0.  1.
</event>
<event>
 7   0  0.6206631E-02  0.9118800E+02  0.7818608E-02  0.1180000E+00
       11   -1    0    0    0    0  0.00000000000E+00  0.00000000000E+00  0.11999999989E+02  0.12000000000E+02  0.51109989000E-03 0. -1.
     -623   -1    0    0    0    0  0.00000000000E+00  0.00000000000E+00  0.42561509872E-11  0.25126700000E+02  0.25126700000E+02 0. -1.
      622    2    1    2    0    0 -0.28633782858E-02  0.50721409201E-03  0.11994238765E+02  0.11994433649E+02  0.68312277827E-01 0.  0.
       11    1    1    2    0    0  0.46006158642E-02 -0.21660655827E-02  0.22048694417E-02  0.55659840826E-02  0.51109989000E-03 0. -1.
     -623    1    1    2    0    0 -0.17372375784E-02  0.16588514907E-02  0.35563548805E-02  0.25126700366E+02  0.25126700000E+02 0. -1.
     -611    1    3    3    0    0 -0.18333638681E-01  0.27397200556E-01  0.49795976915E+01  0.49797168492E+01  0.10000000000E-01 0.  1.
      611    1    3    3    0    0  0.15470260396E-01 -0.26889986464E-01  0.70146410732E+01  0.70147168002E+01  0.10000000000E-01 0. -1.
</event>
<event>
 7   0  0.6206631E-02  0.9118800E+02  0.7818608E-02  0.1180000E+00
       11   -1    0    0    0    0  0.00000000000E+00  0.00000000000E+00  0.11999999989E+02  0.12000000000E+02  0.51109989000E-03 0. -1.
     -623   -1    0    0    0    0  0.00000000000E+00  0.00000000000E+00  0.42561509872E-11  0.25126700000E+02  0.25126700000E+02 0. -1.
      622    2    1    2    0    0  0.85146418545E-01 -0.56690905483E-01  0.10168949686E+02  0.10169939445E+02  0.98319967627E-01 0.  0.
       11    1    1    2    0    0 -0.19238090341E+00  0.10391323065E+00  0.18166722564E+01  0.18297832440E+01  0.51109989000E-03 0. -1.
     -623    1    1    2    0    0  0.10723448487E+00 -0.47222325168E-01  0.14378046404E-01  0.25126977311E+02  0.25126700000E+02 0. -1.
     -611    1    3    3    0    0  0.62453379501E-01 -0.41752520632E-01  0.30855628909E+01  0.30864934879E+01  0.10000000000E-01 0.  1.
      611    1    3    3    0    0  0.22693039044E-01 -0.14938384851E-01  0.70833867954E+01  0.70834459568E+01  0.10000000000E-01 0. -1.
</event>
<event>
 7   0  0.6206631E-02  0.9118800E+02  0.7818608E-02  0.1180000E+00
       11   -1    0    0    0    0  0.00000000000E+00  0.00000000000E+00  0.11999999989E+02  0.12000000000E+02  0.51109989000E-03 0. -1.
     -623   -1    0    0    0    0  0.00000000000E+00  0.00000000000E+00  0.42561509872E-11  0.25126700000E+02  0.25126700000E+02 0.  1.
      622    2    1    2    0    0  0.45831423087E-01 -0.12412980135E-01  0.11399623652E+02  0.11400533756E+02  0.13599972073E+00 0.  0.
       11    1    1    2    0    0 -0.33182165300E-01  0.39595053344E-01  0.59721772365E+00  0.59944815873E+00  0.51109989000E-03 0. -1.
     -623    1    1    2    0    0 -0.12649257786E-01 -0.27182073209E-01  0.31586139360E-02  0.25126718085E+02  0.25126700000E+02 0.  1.
     -611    1    3    3    0    0  0.48731651059E-01 -0.48897789936E-01  0.10333090269E+02  0.10333325712E+02  0.10000000000E-01 0. -1.
      611    1    3    3    0    0 -0.29002279720E-02  0.36484809802E-01  0.10665333823E+01  0.10672080436E+01  0.10000000000E-01 0.  1.
</event>
<event>
 7   0  0.6206631E-02  0.9118800E+02  0.7818608E-02  0.1180000E+00
       11   -1    0    0    0    0  0.00000000000E+00  0.00000000000E+00  0.11999999989E+02  0.12000000000E+02  0.51109989000E-03 0. -1.
     -623   -1    0    0    0    0  0.00000000000E+00  0.00000000000E+00  0.42561509872E-11  0.25126700000E+02  0.25126700000E+02 0.  1.
      622    2    1    2    0    0  0.92135613447E-02  0.73063399464E-02  0.11798086277E+02  0.11798262579E+02  0.63417725003E-01 0.  0.
       11    1    1    2    0    0  0.65730081275E-02 -0.11897348425E-01  0.20127295169E+00  0.20173203424E+00  0.51109989000E-03 0. -1.
     -623    1    1    2    0    0 -0.15786569472E-01  0.45910084789E-02  0.64076030679E-03  0.25126705387E+02  0.25126700000E+02 0.  1.
     -611    1    3    3    0    0 -0.43355409308E-02 -0.22689181040E-01  0.28812465248E+01  0.28813564744E+01  0.10000000000E-01 0. -1.
      611    1    3    3    0    0  0.13549102276E-01  0.29995520987E-01  0.89168397523E+01  0.89169061046E+01  0.10000000000E-01 0. -1.
</event>
<event>
 7   0  0.6206631E-02  0.9118800E+02  0.7818608E-02  0.1180000E+00
       11   -1    0    0    0    0  0.00000000000E+00  0.00000000000E+00  0.11999999989E+02  0.12000000000E+02  0.51109989000E-03 0. -1.
     -623   -1    0    0    0    0  0.00000000000E+00  0.00000000000E+00  0.42561509872E-11  0.25126700000E+02  0.25126700000E+02 0. -1.
      622    2    1    2    0    0  0.73348276029E-02 -0.24694058529E-01  0.10549333575E+02  0.10549813506E+02  0.97275544293E-01 0.  0.
       11    1    1    2    0    0 -0.64618049366E-02  0.22115882250E-01  0.14500032023E+01  0.14501863381E+01  0.51109989000E-03 0. -1.
     -623    1    1    2    0    0 -0.87302266629E-03  0.25781762787E-02  0.66321172853E-03  0.25126700156E+02  0.25126700000E+02 0. -1.
     -611    1    3    3    0    0 -0.29106247342E-01  0.55868887943E-02  0.13898620855E+01  0.13902140136E+01  0.10000000000E-01 0. -1.
      611    1    3    3    0    0  0.36441074945E-01 -0.30280947323E-01  0.91594714896E+01  0.91595994921E+01  0.10000000000E-01 0.  1.
</event>
<event>
 7   0  0.6206631E-02  0.9118800E+02  0.7818608E-02  0.1180000E+00
       11   -1    0    0    0    0  0.00000000000E+00  0.00000000000E+00  0.11999999989E+02  0.12000000000E+02  0.51109989000E-03 0. -1.
     -623   -1    0    0    0    0  0.00000000000E+00  0.00000000000E+00  0.42561509872E-11  0.25126700000E+02  0.25126700000E+02 0.  1.
      622    2    1    2    0    0  0.54597501317E-01 -0.12624170362E-01  0.11383995735E+02  0.11385113825E+02  0.14939095974E+00 0.  0.
       11    1    1    2    0    0 -0.68783017461E-01  0.17636000487E-01  0.61076706290E+00  0.61488112539E+00  0.51109989000E-03 0. -1.
     -623    1    1    2    0    0  0.14185516145E-01 -0.50118301247E-02  0.52371916047E-02  0.25126705050E+02  0.25126700000E+02 0.  1.
     -611    1    3    3    0    0 -0.22766679289E-01  0.52372363738E-01  0.42649609033E+01  0.42653549316E+01  0.10000000000E-01 0.  1.
      611    1    3    3    0    0  0.77364180606E-01 -0.64996534100E-01  0.71190348313E+01  0.71197588931E+01  0.10000000000E-01 0. -1.
</event>
<event>
 7   0  0.6206631E-02  0.9118800E+02  0.7818608E-02  0.1180000E+00
       11   -1    0    0    0    0  0.00000000000E+00  0.00000000000E+00  0.11999999989E+02  0.12000000000E+02  0.51109989000E-03 0. -1.
     -623   -1    0    0    0    0  0.00000000000E+00  0.00000000000E+00  0.42561509872E-11  0.25126700000E+02  0.25126700000E+02 0. -1.
      622    2    1    2    0    0  0.95769334630E-02 -0.24696985955E-01  0.11958322591E+02  0.11959009437E+02  0.12540274333E+00 0.  0.
       11    1    1    2    0    0 -0.15784163385E-01  0.14603377730E-01  0.34889287697E-01  0.40986852453E-01  0.51109989000E-03 0. -1.
     -623    1    1    2    0    0  0.62072299223E-02  0.10093608225E-01  0.67881101383E-02  0.25126703711E+02  0.25126700000E+02 0. -1.
     -611    1    3    3    0    0  0.31916093878E-01  0.23926900493E-01  0.15527800688E+01  0.15533245236E+01  0.10000000000E-01 0.  1.
      611    1    3    3    0    0 -0.22339160415E-01 -0.48623886448E-01  0.10405542522E+02  0.10405684913E+02  0.10000000000E-01 0. -1.
</event>
<event>
 7   0  0.6206631E-02  0.9118800E+02  0.7818608E-02  0.1180000E+00
       11   -1    0    0    0    0  0.00000000000E+00  0.00000000000E+00  0.11999999989E+02  0.12000000000E+02  0.51109989000E-03 0.  1.
     -623   -1    0    0    0    0  0.00000000000E+00  0.00000000000E+00  0.42561509872E-11  0.25126700000E+02  0.25126700000E+02 0. -1.
      622    2    1    2    0    0  0.66101060524E-02  0.17669394887E-01  0.11810518862E+02  0.11810668517E+02  0.56383827194E-01 0.  0.
       11    1    1    2    0    0 -0.54759873571E-02 -0.18612109634E-01  0.18833408021E+00  0.18933141328E+00  0.51109989000E-03 0.  1.
     -623    1    1    2    0    0 -0.11341186953E-02  0.94271474608E-03  0.11470469967E-02  0.25126700069E+02  0.25126700000E+02 0. -1.
     -611    1    3    3    0    0 -0.18319664846E-01  0.21126192243E-01  0.44030369858E+01  0.44031371344E+01  0.10000000000E-01 0. -1.
      611    1    3    3    0    0  0.24929770898E-01 -0.34567973556E-02  0.74074818762E+01  0.74075313829E+01  0.10000000000E-01 0.  1.
</event>
<event>
 7   0  0.6206631E-02  0.9118800E+02  0.7818608E-02  0.1180000E+00
       11   -1    0    0    0    0  0.00000000000E+00  0.00000000000E+00  0.11999999989E+02  0.12000000000E+02  0.51109989000E-03 0.  1.
     -623   -1    0    0    0    0  0.00000000000E+00  0.00000000000E+00  0.42561509872E-11  0.25126700000E+02  0.25126700000E+02 0. -1.
      622    2    1    2    0    0  0.17031267382E-01 -0.36381286131E-01  0.11728793094E+02  0.11729410950E+02  0.11349067725E+00 0.  0.
       11    1    1    2    0    0 -0.20285160696E-01  0.32070593752E-01  0.26791366361E+00  0.27058825381E+00  0.51109989000E-03 0.  1.
     -623    1    1    2    0    0  0.32538933140E-02  0.43106923794E-02  0.32932317502E-02  0.25126700796E+02  0.25126700000E+02 0. -1.
     -611    1    3    3    0    0 -0.29935300298E-02  0.23724718164E-01  0.81624943881E+01  0.81625355411E+01  0.10000000000E-01 0.  1.
      611    1    3    3    0    0  0.20024797412E-01 -0.60106004295E-01  0.35662987056E+01  0.35668754088E+01  0.10000000000E-01 0. -1.
</event>
<event>
 7   0  0.6206631E-02  0.9118800E+02  0.7818608E-02  0.1180000E+00
       11   -1    0    0    0    0  0.00000000000E+00  0.00000000000E+00  0.11999999989E+02  0.12000000000E+02  0.51109989000E-03 0. -1.
     -623   -1    0    0    0    0  0.00000000000E+00  0.00000000000E+00  0.42561509872E-11  0.25126700000E+02  0.25126700000E+02 0.  1.
      622    2    1    2    0    0  0.11637497369E-02  0.12302235189E-02  0.11705214279E+02  0.11705393054E+02  0.64671197990E-01 0.  0.
       11    1    1    2    0    0 -0.13244989232E-02 -0.87165967255E-03  0.29460223185E+00  0.29460694208E+00  0.51109989000E-03 0. -1.
     -623    1    1    2    0    0  0.16074918635E-03 -0.35856384636E-03  0.18347810534E-03  0.25126700004E+02  0.25126700000E+02 0.  1.
     -611    1    3    3    0    0 -0.17100653629E-01 -0.22344828562E-01  0.38503051613E+01  0.38504209586E+01  0.10000000000E-01 0.  1.
      611    1    3    3    0    0  0.18264403366E-01  0.23575052081E-01  0.78549091180E+01  0.78549720956E+01  0.10000000000E-01 0. -1.
</event>
<event>
 7   0  0.6206631E-02  0.9118800E+02  0.7818608E-02  0.1180000E+00
       11   -1    0    0    0    0  0.00000000000E+00  0.00000000000E+00  0.11999999989E+02  0.12000000000E+02  0.51109989000E-03 0.  1.
     -623   -1    0    0    0    0  0.00000000000E+00  0.00000000000E+00  0.42561509872E-11  0.25126700000E+02  0.25126700000E+02 0.  1.
      622    2    1    2    0    0 -0.51288293931E-02 -0.76702259816E-03  0.11930020618E+02  0.11930277517E+02  0.78120307691E-01 0.  0.
       11    1    1    2    0    0  0.54645562142E-02 -0.15029484889E-02  0.69489768493E-01  0.69722373576E-01  0.51109989000E-03 0.  1.
     -623    1    1    2    0    0 -0.33572682104E-03  0.22699710870E-02  0.48960228917E-03  0.25126700110E+02  0.25126700000E+02 0.  1.
     -611    1    3    3    0    0  0.24100117759E-01 -0.16566486778E-01  0.89745917990E+01  0.89746450194E+01  0.10000000000E-01 0.  1.
      611    1    3    3    0    0 -0.29228947152E-01  0.15799464180E-01  0.29554288193E+01  0.29556324975E+01  0.10000000000E-01 0.  1.
</event>
<event>
 7   0  0.6206631E-02  0.9118800E+02  0.7818608E-02  0.1180000E+00
       11   -1    0    0    0    0  0.00000000000E+00  0.00000000000E+00  0.11999999989E+02  0.12000000000E+02  0.51109989000E-03 0.  1.
     -623   -1    0    0    0    0  0.00000000000E+00  0.00000000000E+00  0.42561509872E-11  0.25126700000E+02  0.25126700000E+02 0. -1.
      622    2    1    2    0    0  0.99437890300E-03  0.28338216591E-02  0.11851434819E+02  0.11851950965E+02  0.11056846976E+00 0.  0.
       11    1    1    2    0    0 -0.23526128714E-02 -0.11141875551E-02  0.14802516432E+00  0.14804893345E+00  0.51109989000E-03 0.  1.
     -623    1    1    2    0    0  0.13582339684E-02 -0.17196341040E-02  0.54000552841E-03  0.25126700101E+02  0.25126700000E+02 0. -1.
     -611    1    3    3    0    0 -0.50197248599E-01  0.23370255994E-02  0.37748705864E+01  0.37752182943E+01  0.10000000000E-01 0. -1.
      611    1    3    3    0    0  0.51191627502E-01  0.49679605967E-03  0.80765642328E+01  0.80767326709E+01  0.10000000000E-01 0.  1.
</event>
<event>
 7   0  0.6206631E-02  0.9118800E+02  0.7818608E-02  0.1180000E+00
       11   -1    0    0    0    0  0.00000000000E+00  0.00000000000E+00  0.11999999989E+02  0.12000000000E+02  0.51109989000E-03 0. -1.
     -623   -1    0    0    0    0  0.00000000000E+00  0.00000000000E+00  0.42561509872E-11  0.25126700000E+02  0.25126700000E+02 0.  1.
      622    2    1    2    0    0  0.73985573090E-02 -0.43235244840E-01  0.98446290565E+01  0.98459073395E+01  0.15246656819E+00 0.  0.
       11    1    1    2    0    0 -0.20548481871E-01  0.27151462360E-01  0.21538148197E+01  0.21540840236E+01  0.51109989000E-03 0. -1.
     -623    1    1    2    0    0  0.13149924562E-01  0.16083782480E-01  0.15561129418E-02  0.25126708637E+02  0.25126700000E+02 0.  1.
     -611    1    3    3    0    0  0.40917701209E-01 -0.55567090127E-01  0.91662094430E+01  0.91664746502E+01  0.10000000000E-01 0. -1.
      611    1    3    3    0    0 -0.33519143900E-01  0.12331845287E-01  0.67841961342E+00  0.67943268930E+00  0.10000000000E-01 0.  1.
</event>
<event>
 7   0  0.6206631E-02  0.9118800E+02  0.7818608E-02  0.1180000E+00
       11   -1    0    0    0    0  0.00000000000E+00  0.00000000000E+00  0.11999999989E+02  0.12000000000E+02  0.51109989000E-03 0. -1.
     -623   -1    0    0    0    0  0.00000000000E+00  0.00000000000E+00  0.42561509872E-11  0.25126700000E+02  0.25126700000E+02 0.  1.
      622    2    1    2    0    0 -0.12642878404E-02 -0.17733610615E-01  0.46051167605E+01  0.46061355220E+01  0.95225992032E-01 0.  0.
       11    1    1    2    0    0  0.36898690947E-02  0.18005407421E-01  0.73938414762E+01  0.73938643379E+01  0.51109989000E-03 0. -1.
     -623    1    1    2    0    0 -0.24255812543E-02 -0.27179680570E-03  0.10417523620E-02  0.25126700140E+02  0.25126700000E+02 0.  1.
     -611    1    3    3    0    0  0.23418060295E-01 -0.16442305896E-01  0.42148777641E+01  0.42149867522E+01  0.10000000000E-01 0.  1.
      611    1    3    3    0    0 -0.24682348136E-01 -0.12913047191E-02  0.39023899645E+00  0.39114876982E+00  0.10000000000E-01 0.  1.
</event>
<event>
 7   0  0.6206631E-02  0.9118800E+02  0.7818608E-02  0.1180000E+00
       11   -1    0    0    0    0  0.00000000000E+00  0.00000000000E+00  0.11999999989E+02  0.12000000000E+02  0.51109989000E-03 0.  1.
     -623   -1    0    0    0    0  0.00000000000E+00  0.00000000000E+00  0.42561509872E-11  0.25126700000E+02  0.25126700000E+02 0.  1.
      622    2    1    2    0    0  0.39437796884E-02 -0.12179921194E-01  0.11481647774E+02  0.11482112431E+02  0.10250057613E+00 0.  0.
       11    1    1    2    0    0 -0.47780827488E-02  0.10697037479E-01  0.51775471927E+00  0.51788750442E+00  0.51109989000E-03 0.  1.
     -623    1    1    2    0    0  0.83430306044E-03  0.14828837157E-02  0.59749598549E-03  0.25126700065E+02  0.25126700000E+02 0.  1.
     -611    1    3    3    0    0 -0.32327943312E-01  0.21350771495E-01  0.79984307693E+01  0.79985308478E+01  0.10000000000E-01 0.  1.
      611    1    3    3    0    0  0.36271723001E-01 -0.33530692689E-01  0.34832170045E+01  0.34835815831E+01  0.10000000000E-01 0. -1.
</event>
<event>
 7   0  0.6206631E-02  0.9118800E+02  0.7818608E-02  0.1180000E+00
       11   -1    0    0    0    0  0.00000000000E+00  0.00000000000E+00  0.11999999989E+02  0.12000000000E+02  0.51109989000E-03 0. -1.
     -623   -1    0    0    0    0  0.00000000000E+00  0.00000000000E+00  0.42561509872E-11  0.25126700000E+02  0.25126700000E+02 0. -1.
      622    2    1    2    0    0 -0.14681385224E-01  0.34680923659E-02  0.10765319406E+02  0.10765775072E+02  0.97894917430E-01 0.  0.
       11    1    1    2    0    0 -0.99234756963E-02 -0.11805161396E-02  0.12341722064E+01  0.12342127714E+01  0.51109989000E-03 0. -1.
     -623    1    1    2    0    0  0.24604860920E-01 -0.22875762263E-02  0.50837629523E-03  0.25126712156E+02  0.25126700000E+02 0. -1.
     -611    1    3    3    0    0 -0.24355882441E-02  0.46668614502E-01  0.37444719823E+01  0.37447769383E+01  0.10000000000E-01 0. -1.
      611    1    3    3    0    0 -0.12245796980E-01 -0.43200522136E-01  0.70208474242E+01  0.70209981340E+01  0.10000000000E-01 0.  1.
</event>
<event>
 7   0  0.6206631E-02  0.9118800E+02  0.7818608E-02  0.1180000E+00
       11   -1    0    0    0    0  0.00000000000E+00  0.00000000000E+00  0.11999999989E+02  0.12000000000E+02  0.51109989000E-03 0.  1.
     -623   -1    0    0    0    0  0.00000000000E+00  0.00000000000E+00  0.42561509872E-11  0.25126700000E+02  0.25126700000E+02 0. -1.
      622    2    1    2    0    0 -0.52376743527E-01  0.10450450332E-03  0.76748048089E+01  0.76759591900E+01  0.12238176836E+00 0.  0.
       11    1    1    2    0    0  0.20178613380E-01  0.80513211771E-01  0.43230939757E+01  0.43238907639E+01  0.51109989000E-03 0.  1.
     -623    1    1    2    0    0  0.32198130146E-01 -0.80617716275E-01  0.21012044700E-02  0.25126850046E+02  0.25126700000E+02 0. -1.
     -611    1    3    3    0    0  0.29668022500E-01  0.74828618934E-02  0.79160712135E+00  0.79226133274E+00  0.10000000000E-01 0.  1.
      611    1    3    3    0    0 -0.82044766027E-01 -0.73783573901E-02  0.68831976876E+01  0.68836978572E+01  0.10000000000E-01 0.  1.
</event>
<event>
 7   0  0.6206631E-02  0.9118800E+02  0.7818608E-02  0.1180000E+00
       11   -1    0    0    0    0  0.00000000000E+00  0.00000000000E+00  0.11999999989E+02  0.12000000000E+02  0.51109989000E-03 0.  1.
     -623   -1    0    0    0    0  0.00000000000E+00  0.00000000000E+00  0.42561509872E-11  0.25126700000E+02  0.25126700000E+02 0.  1.
      622    2    1    2    0    0  0.26900721045E-02  0.55579600439E-02  0.11718267440E+02  0.11718653284E+02  0.94894002680E-01 0.  0.
       11    1    1    2    0    0 -0.19849875241E-02 -0.63691213327E-02  0.28126711888E+00  0.28134668875E+00  0.51109989000E-03 0.  1.
     -623    1    1    2    0    0 -0.70508458046E-03  0.81116128881E-03  0.46543044939E-03  0.25126700027E+02  0.25126700000E+02 0.  1.
     -611    1    3    3    0    0  0.21183995696E-01 -0.16564107386E-01  0.10373124327E+02  0.10373164003E+02  0.10000000000E-01 0.  1.
      611    1    3    3    0    0 -0.18493923592E-01  0.22122067430E-01  0.13451431127E+01  0.13454892808E+01  0.10000000000E-01 0.  1.
</event>
<event>
 7   0  0.6206631E-02  0.9118800E+02  0.7818608E-02  0.1180000E+00
       11   -1    0    0    0    0  0.00000000000E+00  0.00000000000E+00  0.11999999989E+02  0.12000000000E+02  0.51109989000E-03 0. -1.
     -623   -1    0    0    0    0  0.00000000000E+00  0.00000000000E+00  0.42561509872E-11  0.25126700000E+02  0.25126700000E+02 0.  1.
      622    2    1    2    0    0 -0.17100462853E-02 -0.18392415928E-02  0.11996013805E+02  0.11996654712E+02  0.12397878574E+00 0.  0.
       11    1    1    2    0    0  0.24953799328E-02 -0.15589160660E-02  0.15067029443E-02  0.33449240976E-02  0.51109989000E-03 0. -1.
     -623    1    1    2    0    0 -0.78533364752E-03  0.33981576588E-02  0.24794807164E-02  0.25126700364E+02  0.25126700000E+02 0.  1.
     -611    1    3    3    0    0 -0.66141566553E-02  0.16877029484E-01  0.11615295458E+02  0.11615313907E+02  0.10000000000E-01 0. -1.
      611    1    3    3    0    0  0.49041103700E-02 -0.18716271077E-01  0.38071834763E+00  0.38134080469E+00  0.10000000000E-01 0.  1.
</event>
<event>
 7   0  0.6206631E-02  0.9118800E+02  0.7818608E-02  0.1180000E+00
       11   -1    0    0    0    0  0.00000000000E+00  0.00000000000E+00  0.11999999989E+02  0.12000000000E+02  0.51109989000E-03 0.  1.
     -623   -1    0    0    0    0  0.00000000000E+00  0.00000000000E+00  0.42561509872E-11  0.25126700000E+02  0.25126700000E+02 0. -1.
      622    2    1    2    0    0  0.15851480557E-01  0.46578976669E-02  0.11370831311E+02  0.11371345351E+02  0.10685233301E+00 0.  0.
       11    1    1    2    0    0 -0.16261823671E-01 -0.70592282491E-02  0.62840429996E+00  0.62865451962E+00  0.51109989000E-03 0.  1.
     -623    1    1    2    0    0  0.41034311430E-03  0.24013305821E-02  0.76437842079E-03  0.25126700130E+02  0.25126700000E+02 0. -1.
     -611    1    3    3    0    0  0.33709805717E-01  0.46844135313E-01  0.50384542011E+01  0.50387946437E+01  0.10000000000E-01 0. -1.
      611    1    3    3    0    0 -0.17858325161E-01 -0.42186237646E-01  0.63323771096E+01  0.63325507070E+01  0.10000000000E-01 0.  1.
</event>
<event>
 7   0  0.6206631E-02  0.9118800E+02  0.7818608E-02  0.1180000E+00
       11   -1    0    0    0    0  0.00000000000E+00  0.00000000000E+00  0.11999999989E+02  0.12000000000E+02  0.51109989000E-03 0. -1.
     -623   -1    0    0    0    0  0.00000000000E+00  0.00000000000E+00  0.42561509872E-11  0.25126700000E+02  0.25126700000E+02 0. -1.
      622    2    1    2    0    0 -0.36138913644E-02 -0.11742592484E-01  0.11771350828E+02  0.11771858062E+02  0.10858614067E+00 0.  0.
       11    1    1    2    0    0  0.22219236898E-02  0.25253943517E-02  0.22811483230E+00  0.22814020360E+00  0.51109989000E-03 0. -1.
     -623    1    1    2    0    0  0.13919676745E-02  0.92171981323E-02  0.53432848875E-03  0.25126701735E+02  0.25126700000E+02 0. -1.
     -611    1    3    3    0    0 -0.36068888017E-01 -0.45051871976E-01  0.78545291914E+01  0.78547475742E+01  0.10000000000E-01 0.  1.
      611    1    3    3    0    0  0.32454996653E-01  0.33309279492E-01  0.39168216369E+01  0.39171104873E+01  0.10000000000E-01 0. -1.
</event>
<event>
 7   0  0.6206631E-02  0.9118800E+02  0.7818608E-02  0.1180000E+00
       11   -1    0    0    0    0  0.00000000000E+00  0.00000000000E+00  0.11999999989E+02  0.12000000000E+02  0.51109989000E-03 0. -1.
     -623   -1    0    0    0    0  0.00000000000E+00  0.00000000000E+00  0.42561509872E-11  0.25126700000E+02  0.25126700000E+02 0. -1.
      622    2    1    2    0    0  0.45729147371E-01  0.77168742488E-01  0.11499956497E+02  0.11500637361E+02  0.87258825070E-01 0.  0.
       11    1    1    2    0    0 -0.39763985602E-01 -0.69946166432E-01  0.49283503010E+00  0.49935985909E+00  0.51109989000E-03 0. -1.
     -623    1    1    2    0    0 -0.59651617699E-02 -0.72225760563E-02  0.72084620537E-02  0.25126702780E+02  0.25126700000E+02 0. -1.
     -611    1    3    3    0    0  0.65985047178E-01  0.46354483105E-01  0.60306393032E+01  0.60311867132E+01  0.10000000000E-01 0. -1.
      611    1    3    3    0    0 -0.20255899806E-01  0.30814259383E-01  0.54693171938E+01  0.54694506476E+01  0.10000000000E-01 0.  1.
</event>
<event>
 7   0  0.6206631E-02  0.9118800E+02  0.7818608E-02  0.1180000E+00
       11   -1    0    0    0    0  0.00000000000E+00  0.00000000000E+00  0.11999999989E+02  0.12000000000E+02  0.51109989000E-03 0.  1.
     -623   -1    0    0    0    0  0.00000000000E+00  0.00000000000E+00  0.42561509872E-11  0.25126700000E+02  0.25126700000E+02 0.  1.
      622    2    1    2    0    0  0.64968721268E-01  0.62311933000E-01  0.93821547131E+01  0.93833795046E+01  0.12198423758E+00 0.  0.
       11    1    1    2    0    0 -0.84674280616E-01 -0.41314019492E-01  0.26149070198E+01  0.26166038228E+01  0.51109989000E-03 0.  1.
     -623    1    1    2    0    0  0.19705559349E-01 -0.20997913508E-01  0.29382561559E-02  0.25126716673E+02  0.25126700000E+02 0.  1.
     -611    1    3    3    0    0 -0.22537397290E-01 -0.85798671041E-02  0.69672530390E+00  0.69721424074E+00  0.10000000000E-01 0. -1.
      611    1    3    3    0    0  0.87506118557E-01  0.70891800105E-01  0.86854294092E+01  0.86861652638E+01  0.10000000000E-01 0.  1.
</event>
<event>
 7   0  0.6206631E-02  0.9118800E+02  0.7818608E-02  0.1180000E+00
       11   -1    0    0    0    0  0.00000000000E+00  0.00000000000E+00  0.11999999989E+02  0.12000000000E+02  0.51109989000E-03 0.  1.
     -623   -1    0    0    0    0  0.00000000000E+00  0.00000000000E+00  0.42561509872E-11  0.25126700000E+02  0.25126700000E+02 0. -1.
      622    2    1    2    0    0  0.87542696807E-02 -0.75672877937E-02  0.88215805905E+01  0.88220917790E+01  0.94262088830E-01 0.  0.
       11    1    1    2    0    0 -0.88562594907E-02  0.64433642547E-02  0.31778892764E+01  0.31779081900E+01  0.51109989000E-03 0.  1.
     -623    1    1    2    0    0  0.10198981009E-03  0.11239235390E-02  0.53012223593E-03  0.25126700031E+02  0.25126700000E+02 0. -1.
     -611    1    3    3    0    0  0.39716709615E-01  0.25305148414E-01  0.40138303363E+01  0.40141190486E+01  0.10000000000E-01 0.  1.
      611    1    3    3    0    0 -0.30962439934E-01 -0.32872436208E-01  0.48077502542E+01  0.48079727304E+01  0.10000000000E-01 0. -1.
</event>
<event>
 7   0  0.6206631E-02  0.9118800E+02  0.7818608E-02  0.1180000E+00
       11   -1    0    0    0    0  0.00000000000E+00  0.00000000000E+00  0.11999999989E+02  0.12000000000E+02  0.51109989000E-03 0.  1.
     -623   -1    0    0    0    0  0.00000000000E+00  0.00000000000E+00  0.42561509872E-11  0.25126700000E+02  0.25126700000E+02 0.  1.
      622    2    1    2    0    0  0.13202112712E-01  0.29913269584E-01  0.11803667589E+02  0.11804284164E+02  0.11613343957E+00 0.  0.
       11    1    1    2    0    0 -0.19722427998E-02 -0.39368518002E-01  0.19169979555E+00  0.19571112076E+00  0.51109989000E-03 0.  1.
     -623    1    1    2    0    0 -0.11229869912E-01  0.94552484177E-02  0.46326049858E-02  0.25126704716E+02  0.25126700000E+02 0.  1.
     -611    1    3    3    0    0 -0.18572888537E-01 -0.11761466588E-01  0.59543412795E+00  0.59592372416E+00  0.10000000000E-01 0.  1.
      611    1    3    3    0    0  0.31775001249E-01  0.41674736172E-01  0.11208233461E+02  0.11208360440E+02  0.10000000000E-01 0.  1.
</event>
<event>
 7   0  0.6206631E-02  0.9118800E+02  0.7818608E-02  0.1180000E+00
       11   -1    0    0    0    0  0.00000000000E+00  0.00000000000E+00  0.11999999989E+02  0.12000000000E+02  0.51109989000E-03 0. -1.
     -623   -1    0    0    0    0  0.00000000000E+00  0.00000000000E+00  0.42561509872E-11  0.25126700000E+02  0.25126700000E+02 0. -1.
      622    2    1    2    0    0 -0.14551241721E-02  0.27824993596E-03  0.11995873072E+02  0.11996298590E+02  0.10102924729E+00 0.  0.
       11    1    1    2    0    0 -0.63971988128E-04 -0.13817955548E-02  0.33948729106E-02  0.37013290272E-02  0.51109989000E-03 0. -1.
     -623    1    1    2    0    0  0.15190961602E-02  0.11035456189E-02  0.73204416725E-03  0.25126700081E+02  0.25126700000E+02 0. -1.
     -611    1    3    3    0    0  0.24897361667E-01  0.42264600150E-01  0.54290372549E+01  0.54292680621E+01  0.10000000000E-01 0. -1.
      611    1    3    3    0    0 -0.26352485839E-01 -0.41986350214E-01  0.65668358172E+01  0.65670305281E+01  0.10000000000E-01 0.  1.
</event>
<event>
 7   0  0.6206631E-02  0.9118800E+02  0.7818608E-02  0.1180000E+00
       11   -1    0    0    0    0  0.00000000000E+00  0.00000000000E+00  0.11999999989E+02  0.12000000000E+02  0.51109989000E-03 0. -1.
     -623   -1    0    0    0    0  0.00000000000E+00  0.00000000000E+00  0.42561509872E-11  0.25126700000E+02  0.25126700000E+02 0.  1.
      622    2    1    2    0    0  0.33782058099E-01 -0.13690412873E-01  0.91145281482E+01  0.91152467918E+01  0.10849911119E+00 0.  0.
       11    1    1    2    0    0 -0.34974782231E-01  0.12114884520E-01  0.28845156009E+01  0.28847531122E+01  0.51109989000E-03 0. -1.
     -623    1    1    2    0    0  0.11927241321E-02  0.15755283532E-02  0.95624006032E-03  0.25126700096E+02  0.25126700000E+02 0.  1.
     -611    1    3    3    0    0 -0.31072885050E-01 -0.21985501965E-01  0.18556485979E+01  0.18560658947E+01  0.10000000000E-01 0.  1.
      611    1    3    3    0    0  0.64854943148E-01  0.82950890912E-02  0.72588795503E+01  0.72591808972E+01  0.10000000000E-01 0. -1.
</event>
<event>
 6   0  0.6206631E-02  0.9118800E+02  0.7818608E-02  0.1180000E+00
       11   -1    0    0    0    0  0.00000000000E+00  0.00000000000E+00  0.11999999989E+02  0.12000000000E+02  0.51109989000E-03 0.  1.
     -623   -1    0    0    0    0  0.00000000000E+00  0.00000000000E+00  0.42561509872E-11  0.25126700000E+02  0.25126700000E+02 0. -1.
       11    1    1    2    0    0 -0.14675388595E-02  0.91654787946E-02  0.92659384727E+00  0.92664047975E+00  0.51109989000E-03 0.  1.
     -623    1    1    2    0    0  0.41118394091E-02 -0.60249667105E-03  0.22674363194E-02  0.25126700446E+02  0.25126700000E+02 0. -1.
     -611    1    1    2    0    0  0.83123660529E-01  0.21546787907E-02  0.19412788305E+01  0.19430845795E+01  0.10000000000E-01 0. -1.
      611    1    1    2    0    0 -0.85767961078E-01 -0.10717660914E-01  0.91298598750E+01  0.91302744947E+01  0.10000000000E-01 0.  1.
</event>
<event>
 7   0  0.6206631E-02  0.9118800E+02  0.7818608E-02  0.1180000E+00
       11   -1    0    0    0    0  0.00000000000E+00  0.00000000000E+00  0.11999999989E+02  0.12000000000E+02  0.51109989000E-03 0.  1.
     -623   -1    0    0    0    0  0.00000000000E+00  0.00000000000E+00  0.42561509872E-11  0.25126700000E+02  0.25126700000E+02 0. -1.
      622    2    1    2    0    0 -0.14302297501E-02 -0.94365075956E-03  0.11718773835E+02  0.11718972816E+02  0.68269499660E-01 0.  0.
       11    1    1    2    0    0 -0.35781814712E-03  0.20924776632E-02  0.28101861051E+00  0.28102709331E+00  0.51109989000E-03 0.  1.
     -623    1    1    2    0    0  0.17880478973E-02 -0.11488269037E-02  0.20754341614E-03  0.25126700091E+02  0.25126700000E+02 0. -1.
     -611    1    3    3    0    0  0.61183762864E-02  0.28745661153E-01  0.35604463328E+01  0.35605816710E+01  0.10000000000E-01 0. -1.
      611    1    3    3    0    0 -0.75486060366E-02 -0.29689311913E-01  0.81583275024E+01  0.81583911449E+01  0.10000000000E-01 0.  1.
</event>
<event>
 7   0  0.6206631E-02  0.9118800E+02  0.7818608E-02  0.1180000E+00
       11   -1    0    0    0    0  0.00000000000E+00  0.00000000000E+00  0.11999999989E+02  0.12000000000E+02  0.51109989000E-03 0. -1.
     -623   -1    0    0    0    0  0.00000000000E+00  0.00000000000E+00  0.42561509872E-11  0.25126700000E+02  0.25126700000E+02 0. -1.
      622    2    1    2    0    0  0.45274672364E-03  0.80544704810E-02  0.10861822725E+02  0.10862324929E+02  0.10413870671E+00 0.  0.
       11    1    1    2    0    0 -0.12487062675E-01 -0.88778213196E-02  0.11375688814E+01  0.11376721687E+01  0.51109989000E-03 0. -1.
     -623    1    1    2    0    0  0.12034315951E-01  0.82335083862E-03  0.60838304610E-03  0.25126702903E+02  0.25126700000E+02 0. -1.
     -611    1    3    3    0    0 -0.43405396423E-01 -0.62285931116E-03  0.80980678415E+01  0.80981903646E+01  0.10000000000E-01 0. -1.
      611    1    3    3    0    0  0.43858143146E-01  0.86773297922E-02  0.27637548832E+01  0.27641345639E+01  0.10000000000E-01 0.  1.
</event>
<event>
 7   0  0.6206631E-02  0.9118800E+02  0.7818608E-02  0.1180000E+00
       11   -1    0    0    0    0  0.00000000000E+00  0.00000000000E+00  0.11999999989E+02  0.12000000000E+02  0.51109989000E-03 0. -1.
     -623   -1    0    0    0    0  0.00000000000E+00  0.00000000000E+00  0.42561509872E-11  0.25126700000E+02  0.25126700000E+02 0. -1.
      622    2    1    2    0    0  0.25356020356E+00  0.17372728201E+00  0.80377718134E+01  0.80443699500E+01  0.10788059353E+00 0.  0.
       11    1    1    2    0    0 -0.19080289308E+00 -0.16874932222E+00  0.39473368143E+01  0.39555467719E+01  0.51109989000E-03 0. -1.
     -623    1    1    2    0    0 -0.62757310481E-01 -0.49779597897E-02  0.14891361337E-01  0.25126783278E+02  0.25126700000E+02 0. -1.
     -611    1    3    3    0    0  0.83812505037E-01  0.48910042437E-01  0.14830706961E+01  0.14862756870E+01  0.10000000000E-01 0.  1.
      611    1    3    3    0    0  0.16974769852E+00  0.12481723958E+00  0.65547011173E+01  0.65580942630E+01  0.10000000000E-01 0. -1.
</event>
<event>
 7   0  0.6206631E-02  0.9118800E+02  0.7818608E-02  0.1180000E+00
       11   -1    0    0    0    0  0.00000000000E+00  0.00000000000E+00  0.11999999989E+02  0.12000000000E+02  0.51109989000E-03 0. -1.
     -623   -1    0    0    0    0  0.00000000000E+00  0.00000000000E+00  0.42561509872E-11  0.25126700000E+02  0.25126700000E+02 0. -1.
      622    2    1    2    0    0  0.18283650735E+00  0.12404951453E+00  0.68151470169E+01  0.68199777731E+01  0.13057753545E+00 0.  0.
       11    1    1    2    0    0 -0.19725410814E+00 -0.10160016796E+00  0.51752519242E+01  0.51800062276E+01  0.51109989000E-03 0. -1.
     -623    1    1    2    0    0  0.14417600787E-01 -0.22449346566E-01  0.96010479637E-02  0.25126715999E+02  0.25126700000E+02 0. -1.
     -611    1    3    3    0    0  0.96024333395E-01  0.10247264899E+00  0.54757920975E+01  0.54776017025E+01  0.10000000000E-01 0. -1.
      611    1    3    3    0    0  0.86812173959E-01  0.21576865537E-01  0.13393549195E+01  0.13423760706E+01  0.10000000000E-01 0.  1.
</event>
<event>
 7   0  0.6206631E-02  0.9118800E+02  0.7818608E-02  0.1180000E+00
       11   -1    0    0    0    0  0.00000000000E+00  0.00000000000E+00  0.11999999989E+02  0.12000000000E+02  0.51109989000E-03 0.  1.
     -623   -1    0    0    0    0  0.00000000000E+00  0.00000000000E+00  0.42561509872E-11  0.25126700000E+02  0.25126700000E+02 0. -1.
      622    2    1    2    0    0 -0.10461328030E-01  0.16040885228E-01  0.10094722898E+02  0.10095345998E+02  0.11051550758E+00 0.  0.
       11    1    1    2    0    0  0.73458583071E-02  0.11461863202E-01  0.19045900249E+01  0.19046387479E+01  0.51109989000E-03 0.  1.
     -623    1    1    2    0    0  0.31154697229E-02 -0.27502748430E-01  0.68706616954E-03  0.25126715254E+02  0.25126700000E+02 0. -1.
     -611    1    3    3    0    0  0.28179421844E-01  0.47604644265E-01  0.37790735759E+01  0.37794916820E+01  0.10000000000E-01 0. -1.
      611    1    3    3    0    0 -0.38640749874E-01 -0.31563759037E-01  0.63156493222E+01  0.63158543158E+01  0.10000000000E-01 0.  1.
</event>
<event>
 7   0  0.6206631E-02  0.9118800E+02  0.7818608E-02  0.1180000E+00
       11   -1    0    0    0    0  0.00000000000E+00  0.00000000000E+00  0.11999999989E+02  0.12000000000E+02  0.51109989000E-03 0.  1.
     -623   -1    0    0    0    0  0.00000000000E+00  0.00000000000E+00  0.42561509872E-11  0.25126700000E+02  0.25126700000E+02 0.  1.
      622    2    1    2    0    0  0.32504442922E-01  0.43911276633E-01  0.82501381538E+01  0.82509964479E+01  0.10572647793E+00 0.  0.
       11    1    1    2    0    0 -0.20561459594E-01 -0.35461537164E-01  0.37487751289E+01  0.37489992695E+01  0.51109989000E-03 0.  1.
     -623    1    1    2    0    0 -0.11942983328E-01 -0.84497394697E-02  0.10867064095E-02  0.25126704283E+02  0.25126700000E+02 0.  1.
     -611    1    3    3    0    0 -0.15255794510E-01  0.58865740080E-01  0.57963639766E+01  0.57966915792E+01  0.10000000000E-01 0.  1.
      611    1    3    3    0    0  0.47760237433E-01 -0.14954463446E-01  0.24537741771E+01  0.24543048687E+01  0.10000000000E-01 0. -1.
</event>
<event>
 7   0  0.6206631E-02  0.9118800E+02  0.7818608E-02  0.1180000E+00
       11   -1    0    0    0    0  0.00000000000E+00  0.00000000000E+00  0.11999999989E+02  0.12000000000E+02  0.51109989000E-03 0. -1.
     -623   -1    0    0    0    0  0.00000000000E+00  0.00000000000E+00  0.42561509872E-11  0.25126700000E+02  0.25126700000E+02 0. -1.
      622    2    1    2    0    0  0.16507730088E-01 -0.38309323169E-01  0.11188737101E+02  0.11189251206E+02  0.98815647035E-01 0.  0.
       11    1    1    2    0    0  0.38336440783E-01  0.54337651575E-01  0.80795135338E+00  0.81068360889E+00  0.51109989000E-03 0. -1.
     -623    1    1    2    0    0 -0.54844170870E-01 -0.16028328407E-01  0.33115345814E-02  0.25126765185E+02  0.25126700000E+02 0. -1.
     -611    1    3    3    0    0  0.18724190473E-01  0.30409361291E-01  0.45226437366E+01  0.45227957828E+01  0.10000000000E-01 0.  1.
      611    1    3    3    0    0 -0.22164603854E-02 -0.68718684459E-01  0.66660933645E+01  0.66664554236E+01  0.10000000000E-01 0. -1.
</event>
<event>
 7   0  0.6206631E-02  0.9118800E+02  0.7818608E-02  0.1180000E+00
       11   -1    0    0    0    0  0.00000000000E+00  0.00000000000E+00  0.11999999989E+02  0.12000000000E+02  0.51109989000E-03 0.  1.
     -623   -1    0    0    0    0  0.00000000000E+00  0.00000000000E+00  0.42561509872E-11  0.25126700000E+02  0.25126700000E+02 0. -1.
      622    2    1    2    0    0  0.23157720760E-01  0.34292330956E-01  0.11832647774E+02  0.11832996478E+02  0.80870615242E-01 0.  0.
       11    1    1    2    0    0 -0.28587559310E-02 -0.25075193965E-01  0.16507464838E+00  0.16699352861E+00  0.51109989000E-03 0.  1.
     -623    1    1    2    0    0 -0.20298964829E-01 -0.92171369906E-02  0.22775663376E-02  0.25126709993E+02  0.25126700000E+02 0. -1.
     -611    1    3    3    0    0 -0.31575693240E-02 -0.78724184327E-02  0.36316846819E+00  0.36340512036E+00  0.10000000000E-01 0. -1.
      611    1    3    3    0    0  0.26315290084E-01  0.42164749388E-01  0.11469479306E+02  0.11469591358E+02  0.10000000000E-01 0.  1.
</event>
<event>
 7   0  0.6206631E-02  0.9118800E+02  0.7818608E-02  0.1180000E+00
       11   -1    0    0    0    0  0.00000000000E+00  0.00000000000E+00  0.11999999989E+02  0.12000000000E+02  0.51109989000E-03 0. -1.
     -623   -1    0    0    0    0  0.00000000000E+00  0.00000000000E+00  0.42561509872E-11  0.25126700000E+02  0.25126700000E+02 0.  1.
      622    2    1    2    0    0 -0.11499059779E-02 -0.10278091211E-02  0.11910425090E+02  0.11910613241E+02  0.66929593005E-01 0.  0.
       11    1    1    2    0    0 -0.10279101546E-02  0.87072180226E-04  0.89379231898E-01  0.89386646087E-01  0.51109989000E-03 0. -1.
     -623    1    1    2    0    0  0.21778161325E-02  0.94073694083E-03  0.19566693083E-03  0.25126700113E+02  0.25126700000E+02 0.  1.
     -611    1    3    3    0    0  0.64807367452E-02  0.17165764532E-01  0.13227632913E+01  0.13229283382E+01  0.10000000000E-01 0.  1.
      611    1    3    3    0    0 -0.76306427232E-02 -0.18193573653E-01  0.10587661799E+02  0.10587684903E+02  0.10000000000E-01 0. -1.
</event>
<event>
 7   0  0.6206631E-02  0.9118800E+02  0.7818608E-02  0.1180000E+00
       11   -1    0    0    0    0  0.00000000000E+00  0.00000000000E+00  0.11999999989E+02  0.12000000000E+02  0.51109989000E-03 0.  1.
     -623   -1    0    0    0    0  0.00000000000E+00  0.00000000000E+00  0.42561509872E-11  0.25126700000E+02  0.25126700000E+02 0. -1.
      622    2    1    2    0    0  0.11863009847E-01  0.10152483960E-01  0.11351844493E+02  0.11352167251E+02  0.84167054798E-01 0.  0.
       11    1    1    2    0    0 -0.13611314010E-01 -0.10035912048E-01  0.64761171629E+00  0.64783268187E+00  0.51109989000E-03 0.  1.
     -623    1    1    2    0    0  0.17483041630E-02 -0.11657191201E-03  0.54377948485E-03  0.25126700067E+02  0.25126700000E+02 0. -1.
     -611    1    3    3    0    0 -0.13231140941E-01  0.40333987050E-01  0.48253870135E+01  0.48255840811E+01  0.10000000000E-01 0.  1.
      611    1    3    3    0    0  0.25094150788E-01 -0.30181503090E-01  0.65264574798E+01  0.65265831701E+01  0.10000000000E-01 0. -1.
</event>
<event>
 7   0  0.6206631E-02  0.9118800E+02  0.7818608E-02  0.1180000E+00
       11   -1    0    0    0    0  0.00000000000E+00  0.00000000000E+00  0.11999999989E+02  0.12000000000E+02  0.51109989000E-03 0.  1.
     -623   -1    0    0    0    0  0.00000000000E+00  0.00000000000E+00  0.42561509872E-11  0.25126700000E+02  0.25126700000E+02 0.  1.
      622    2    1    2    0    0 -0.70101284973E-02 -0.17766435452E-01  0.11598392772E+02  0.11598811126E+02  0.96642938047E-01 0.  0.
       11    1    1    2    0    0  0.58007434829E-02  0.20634184278E-01  0.40061535551E+00  0.40118866195E+00  0.51109989000E-03 0.  1.
     -623    1    1    2    0    0  0.12093850144E-02 -0.28677488254E-02  0.99186200475E-03  0.25126700212E+02  0.25126700000E+02 0.  1.
     -611    1    3    3    0    0 -0.50435329429E-03  0.10253519372E-01  0.27191258128E+00  0.27228999411E+00  0.10000000000E-01 0. -1.
      611    1    3    3    0    0 -0.65057752030E-02 -0.28019954825E-01  0.11326480190E+02  0.11326521132E+02  0.10000000000E-01 0.  1.
</event>
<event>
 7   0  0.6206631E-02  0.9118800E+02  0.7818608E-02  0.1180000E+00
       11   -1    0    0    0    0  0.00000000000E+00  0.00000000000E+00  0.11999999989E+02  0.12000000000E+02  0.51109989000E-03 0. -1.
     -623   -1    0    0    0    0  0.00000000000E+00  0.00000000000E+00  0.42561509872E-11  0.25126700000E+02  0.25126700000E+02 0.  1.
      622    2    1    2    0    0  0.31245536323E-02 -0.31735877709E-01  0.92599980932E+01  0.92606314002E+01  0.10350031644E+00 0.  0.
       11    1    1    2    0    0  0.14139118783E-01  0.43296730548E-01  0.27389812642E+01  0.27393599888E+01  0.51109989000E-03 0. -1.
     -623    1    1    2    0    0 -0.17263672416E-01 -0.11560852840E-01  0.10206316972E-02  0.25126708611E+02  0.25126700000E+02 0.  1.
     -611    1    3    3    0    0 -0.21540740356E-01  0.13519213362E-01  0.79330977450E+00  0.79378030395E+00  0.10000000000E-01 0.  1.
      611    1    3    3    0    0  0.24665293989E-01 -0.45255091070E-01  0.84666883187E+01  0.84668510963E+01  0.10000000000E-01 0. -1.
</event>
<event>
 7   0  0.6206631E-02  0.9118800E+02  0.7818608E-02  0.1180000E+00
       11   -1    0    0    0    0  0.00000000000E+00  0.00000000000E+00  0.11999999989E+02  0.12000000000E+02  0.51109989000E-03 0.  1.
     -623   -1    0    0    0    0  0.00000000000E+00  0.00000000000E+00  0.42561509872E-11  0.25126700000E+02  0.25126700000E+02 0. -1.
      622    2    1    2    0    0  0.77365135777E-02 -0.70000143723E-02  0.10844277586E+02  0.10844734207E+02  0.98968701519E-01 0.  0.
       11    1    1    2    0    0  0.17003468176E-01  0.12919536441E-02  0.11551269839E+01  0.11552529581E+01  0.51109989000E-03 0.  1.
     -623    1    1    2    0    0 -0.24739981754E-01  0.57080607281E-02  0.59541932202E-03  0.25126712835E+02  0.25126700000E+02 0. -1.
     -611    1    3    3    0    0 -0.20336184538E-02  0.43141969407E-01  0.63598304533E+01  0.63599849653E+01  0.10000000000E-01 0. -1.
      611    1    3    3    0    0  0.97701320315E-02 -0.50141983779E-01  0.44844471326E+01  0.44847492415E+01  0.10000000000E-01 0.  1.
</event>
<event>
 7   0  0.6206631E-02  0.9118800E+02  0.7818608E-02  0.1180000E+00
       11   -1    0    0    0    0  0.00000000000E+00  0.00000000000E+00  0.11999999989E+02  0.12000000000E+02  0.51109989000E-03 0.  1.
     -623   -1    0    0    0    0  0.00000000000E+00  0.00000000000E+00  0.42561509872E-11  0.25126700000E+02  0.25126700000E+02 0.  1.
      622    2    1    2    0    0 -0.63573846112E-03  0.50636176376E-02  0.11909781017E+02  0.11910135315E+02  0.91724118910E-01 0.  0.
       11    1    1    2    0    0 -0.94663171103E-03 -0.34421814322E-02  0.89792185993E-01  0.89864579302E-01  0.51109989000E-03 0.  1.
     -623    1    1    2    0    0  0.15823701722E-02 -0.16214362053E-02  0.42678660055E-03  0.25126700106E+02  0.25126700000E+02 0.  1.
     -611    1    3    3    0    0 -0.33101765261E-01 -0.27663077651E-01  0.63318610198E+01  0.63320158675E+01  0.10000000000E-01 0. -1.
      611    1    3    3    0    0  0.32466026800E-01  0.32726695289E-01  0.55779199967E+01  0.55781194474E+01  0.10000000000E-01 0.  1.
</event>
<event>
 6   0  0.6206631E-02  0.9118800E+02  0.7818608E-02  0.1180000E+00
       11   -1    0    0    0    0  0.00000000000E+00  0.00000000000E+00  0.11999999989E+02  0.12000000000E+02  0.51109989000E-03 0. -1.
     -623   -1    0    0    0    0  0.00000000000E+00  0.00000000000E+00  0.42561509872E-11  0.25126700000E+02  0.25126700000E+02 0.  1.
       11    1    1    2    0    0 -0.63204346014E-01  0.36488435126E-01  0.65280263176E+00  0.65686964651E+00  0.51109989000E-03 0. -1.
     -623    1    1    2    0    0  0.46548627062E-02 -0.11728891625E-01  0.69709293866E-02  0.25126704136E+02  0.25126700000E+02 0.  1.
     -611    1    1    2    0    0  0.12930520999E+00 -0.77478256896E-02  0.32895451210E+01  0.32921098051E+01  0.10000000000E-01 0.  1.
      611    1    1    2    0    0 -0.70755726681E-01 -0.17011717812E-01  0.80506813070E+01  0.80510164128E+01  0.10000000000E-01 0. -1.
</event>
<event>
 7   0  0.6206631E-02  0.9118800E+02  0.7818608E-02  0.1180000E+00
       11   -1    0    0    0    0  0.00000000000E+00  0.00000000000E+00  0.11999999989E+02  0.12000000000E+02  0.51109989000E-03 0. -1.
     -623   -1    0    0    0    0  0.00000000000E+00  0.00000000000E+00  0.42561509872E-11  0.25126700000E+02  0.25126700000E+02 0.  1.
      622    2    1    2    0    0  0.19654018378E-01  0.98665458825E-02  0.10476289258E+02  0.10476822827E+02  0.10342299820E+00 0.  0.
       11    1    1    2    0    0 -0.25455565924E-01 -0.36085651880E-02  0.15229586279E+01  0.15231757125E+01  0.51109989000E-03 0. -1.
     -623    1    1    2    0    0  0.58015475457E-02 -0.62579806945E-02  0.75210372021E-03  0.25126701460E+02  0.25126700000E+02 0.  1.
     -611    1    3    3    0    0  0.14477414111E-01  0.40492343212E-01  0.20724305461E+01  0.20729007679E+01  0.10000000000E-01 0.  1.
      611    1    3    3    0    0  0.51766042669E-02 -0.30625797329E-01  0.84038587114E+01  0.84039220593E+01  0.10000000000E-01 0. -1.
</event>
<event>
 7   0  0.6206631E-02  0.9118800E+02  0.7818608E-02  0.1180000E+00
       11   -1    0    0    0    0  0.00000000000E+00  0.00000000000E+00  0.11999999989E+02  0.12000000000E+02  0.51109989000E-03 0. -1.
     -623   -1    0    0    0    0  0.00000000000E+00  0.00000000000E+00  0.42561509872E-11  0.25126700000E+02  0.25126700000E+02 0.  1.
      622    2    1    2    0    0  0.59056479797E-02 -0.21444021122E-02  0.11990156695E+02  0.11990661320E+02  0.10982642575E+00 0.  0.
       11    1    1    2    0    0 -0.19161568951E-02 -0.12366502166E-02  0.90409264926E-02  0.93381227223E-02  0.51109989000E-03 0. -1.
     -623    1    1    2    0    0 -0.39894910846E-02  0.33810523288E-02  0.80236729691E-03  0.25126700557E+02  0.25126700000E+02 0.  1.
     -611    1    3    3    0    0 -0.19016055220E-01 -0.43619023544E-01  0.32369028836E+01  0.32372680623E+01  0.10000000000E-01 0. -1.
      611    1    3    3    0    0  0.24921703200E-01  0.41474621432E-01  0.87532538117E+01  0.87533932580E+01  0.10000000000E-01 0.  1.
</event>
<event>
 7   0  0.6206631E-02  0.9118800E+02  0.7818608E-02  0.1180000E+00
       11   -1    0    0    0    0  0.00000000000E+00  0.00000000000E+00  0.11999999989E+02  0.12000000000E+02  0.51109989000E-03 0.  1.
     -623   -1    0    0    0    0  0.00000000000E+00  0.00000000000E+00  0.42561509872E-11  0.25126700000E+02  0.25126700000E+02 0. -1.
      622    2    1    2    0    0  0.11758552727E-01  0.26080384693E-01  0.96902010661E+01  0.96904458965E+01  0.62661956850E-01 0.  0.
       11    1    1    2    0    0 -0.72513300277E-03 -0.28695482446E-01  0.23093730977E+01  0.23095515413E+01  0.51109989000E-03 0.  1.
     -623    1    1    2    0    0 -0.11033419724E-01  0.26150977533E-02  0.42582527403E-03  0.25126702562E+02  0.25126700000E+02 0. -1.
     -611    1    3    3    0    0 -0.65067999791E-02  0.34199886684E-01  0.81724786900E+01  0.81725589572E+01  0.10000000000E-01 0.  1.
      611    1    3    3    0    0  0.18265352706E-01 -0.81195019913E-02  0.15177223762E+01  0.15178869393E+01  0.10000000000E-01 0. -1.
</event>
<event>
 7   0  0.6206631E-02  0.9118800E+02  0.7818608E-02  0.1180000E+00
       11   -1    0    0    0    0  0.00000000000E+00  0.00000000000E+00  0.11999999989E+02  0.12000000000E+02  0.51109989000E-03 0.  1.
     -623   -1    0    0    0    0  0.00000000000E+00  0.00000000000E+00  0.42561509872E-11  0.25126700000E+02  0.25126700000E+02 0.  1.
      622    2    1    2    0    0 -0.42566436002E-01 -0.53644521758E-01  0.11412001176E+02  0.11412384328E+02  0.63683434184E-01 0.  0.
       11    1    1    2    0    0  0.36352576698E-01  0.52311436655E-01  0.58415120454E+00  0.58761457370E+00  0.51109989000E-03 0.  1.
     -623    1    1    2    0    0  0.62138593038E-02  0.13330851021E-02  0.38476088880E-02  0.25126701098E+02  0.25126700000E+02 0.  1.
     -611    1    3    3    0    0  0.79168309243E-02 -0.41449015433E-02  0.61119103617E+00  0.61133815447E+00  0.10000000000E-01 0.  1.
      611    1    3    3    0    0 -0.50483266926E-01 -0.49499620214E-01  0.10800810140E+02  0.10801046174E+02  0.10000000000E-01 0.  1.
</event>
<event>
 7   0  0.6206631E-02  0.9118800E+02  0.7818608E-02  0.1180000E+00
       11   -1    0    0    0    0  0.00000000000E+00  0.00000000000E+00  0.11999999989E+02  0.12000000000E+02  0.51109989000E-03 0.  1.
     -623   -1    0    0    0    0  0.00000000000E+00  0.00000000000E+00  0.42561509872E-11  0.25126700000E+02  0.25126700000E+02 0.  1.
      622    2    1    2    0    0  0.32441204331E-02  0.33423145266E-02  0.11954148428E+02  0.11954870926E+02  0.13134893182E+00 0.  0.
       11    1    1    2    0    0 -0.88810264896E-02  0.53198125612E-02  0.43920388158E-01  0.45126873992E-01  0.51109989000E-03 0.  1.
     -623    1    1    2    0    0  0.56369060565E-02 -0.86621270878E-02  0.19311733160E-02  0.25126702200E+02  0.25126700000E+02 0.  1.
     -611    1    3    3    0    0  0.52213613218E-01  0.29852183413E-01  0.34832455443E+01  0.34837791170E+01  0.10000000000E-01 0.  1.
      611    1    3    3    0    0 -0.48969492785E-01 -0.26509868886E-01  0.84709028833E+01  0.84710918094E+01  0.10000000000E-01 0. -1.
</event>
<event>
 7   0  0.6206631E-02  0.9118800E+02  0.7818608E-02  0.1180000E+00
       11   -1    0    0    0    0  0.00000000000E+00  0.00000000000E+00  0.11999999989E+02  0.12000000000E+02  0.51109989000E-03 0.  1.
     -623   -1    0    0    0    0  0.00000000000E+00  0.00000000000E+00  0.42561509872E-11  0.25126700000E+02  0.25126700000E+02 0. -1.
      622    2    1    2    0    0  0.13752922739E-02  0.42674181624E-03  0.11763144299E+02  0.11763317891E+02  0.63890061276E-01 0.  0.
       11    1    1    2    0    0 -0.35855433670E-03 -0.22419166088E-03  0.23668115738E+00  0.23668208700E+00  0.51109989000E-03 0.  1.
     -623    1    1    2    0    0 -0.10167379372E-02 -0.20255015536E-03  0.17453306321E-03  0.25126700022E+02  0.25126700000E+02 0. -1.
     -611    1    3    3    0    0  0.28351599908E-01 -0.12150247081E-01  0.62724534258E+01  0.62725372395E+01  0.10000000000E-01 0.  1.
      611    1    3    3    0    0 -0.26976307634E-01  0.12576988897E-01  0.54906908728E+01  0.54907806515E+01  0.10000000000E-01 0. -1.
</event>
<event>
 7   0  0.6206631E-02  0.9118800E+02  0.7818608E-02  0.1180000E+00
       11   -1    0    0    0    0  0.00000000000E+00  0.00000000000E+00  0.11999999989E+02  0.12000000000E+02  0.51109989000E-03 0. -1.
     -623   -1    0    0    0    0  0.00000000000E+00  0.00000000000E+00  0.42561509872E-11  0.25126700000E+02  0.25126700000E+02 0. -1.
      622    2    1    2    0    0 -0.13199955544E-01 -0.17502644321E-01  0.11404109952E+02  0.11404854419E+02  0.12845211896E+00 0.  0.
       11    1    1    2    0    0  0.15291075104E-01  0.13278093272E-01  0.59480023687E+00  0.59514511487E+00  0.51109989000E-03 0. -1.
     -623    1    1    2    0    0 -0.20911195602E-02  0.42245510487E-02  0.10898002012E-02  0.25126700466E+02  0.25126700000E+02 0. -1.
     -611    1    3    3    0    0 -0.66682514528E-01 -0.29344461129E-01  0.72056555602E+01  0.72060307873E+01  0.10000000000E-01 0. -1.
      611    1    3    3    0    0  0.53482558984E-01  0.11841816808E-01  0.41984543918E+01  0.41988236321E+01  0.10000000000E-01 0.  1.
</event>
<event>
 7   0  0.6206631E-02  0.9118800E+02  0.7818608E-02  0.1180000E+00
       11   -1    0    0    0    0  0.00000000000E+00  0.00000000000E+00  0.11999999989E+02  0.12000000000E+02  0.51109989000E-03 0. -1.
     -623   -1    0    0    0    0  0.00000000000E+00  0.00000000000E+00  0.42561509872E-11  0.25126700000E+02  0.25126700000E+02 0. -1.
      622    2    1    2    0    0  0.15619209091E-01  0.48641477221E-01  0.37638445490E+01  0.37662852903E+01  0.12557526032E+00 0.  0.
       11    1    1    2    0    0 -0.65783365764E-01 -0.73426351501E-01  0.82330619908E+01  0.82336522204E+01  0.51109989000E-03 0. -1.
     -623    1    1    2    0    0  0.50164156673E-01  0.24784874280E-01  0.30934492645E-02  0.25126762489E+02  0.25126700000E+02 0. -1.
     -611    1    3    3    0    0  0.56695502659E-01  0.63998023020E-01  0.19745787121E+01  0.19764542032E+01  0.10000000000E-01 0. -1.
      611    1    3    3    0    0 -0.41076293568E-01 -0.15356545799E-01  0.17892658369E+01  0.17898310871E+01  0.10000000000E-01 0.  1.
</event>
<event>
 7   0  0.6206631E-02  0.9118800E+02  0.7818608E-02  0.1180000E+00
       11   -1    0    0    0    0  0.00000000000E+00  0.00000000000E+00  0.11999999989E+02  0.12000000000E+02  0.51109989000E-03 0. -1.
     -623   -1    0    0    0    0  0.00000000000E+00  0.00000000000E+00  0.42561509872E-11  0.25126700000E+02  0.25126700000E+02 0.  1.
      622    2    1    2    0    0 -0.17644712511E-02  0.14904510568E-02  0.11975308506E+02  0.11975666545E+02  0.92574553077E-01 0.  0.
       11    1    1    2    0    0 -0.20090640575E-02  0.21655601426E-02  0.24147521723E-01  0.24332899902E-01  0.51109989000E-03 0. -1.
     -623    1    1    2    0    0  0.37735353085E-02 -0.36560111994E-02  0.54396150272E-03  0.25126700555E+02  0.25126700000E+02 0.  1.
     -611    1    3    3    0    0  0.37296787815E-01  0.13849174769E-01  0.85503504681E+01  0.85504488758E+01  0.10000000000E-01 0. -1.
      611    1    3    3    0    0 -0.39061259066E-01 -0.12358723713E-01  0.34249580379E+01  0.34252176692E+01  0.10000000000E-01 0.  1.
</event>
<event>
 7   0  0.6206631E-02  0.9118800E+02  0.7818608E-02  0.1180000E+00
       11   -1    0    0    0    0  0.00000000000E+00  0.00000000000E+00  0.11999999989E+02  0.12000000000E+02  0.51109989000E-03 0.  1.
     -623   -1    0    0    0    0  0.00000000000E+00  0.00000000000E+00  0.42561509872E-11  0.25126700000E+02  0.25126700000E+02 0. -1.
      622    2    1    2    0    0  0.39735403712E-02 -0.16174262897E-02  0.11994180852E+02  0.11994515488E+02  0.89493426284E-01 0.  0.
       11    1    1    2    0    0  0.34096071521E-02 -0.28061234875E-02  0.32095547059E-02  0.54829020142E-02  0.51109989000E-03 0.  1.
     -623    1    1    2    0    0 -0.73831475233E-02  0.44235497772E-02  0.26095819193E-02  0.25126701610E+02  0.25126700000E+02 0. -1.
     -611    1    3    3    0    0  0.34784351837E-01  0.12938408509E-01  0.27743292992E+01  0.27745955406E+01  0.10000000000E-01 0. -1.
      611    1    3    3    0    0 -0.30810811466E-01 -0.14555834799E-01  0.92198515533E+01  0.92199199478E+01  0.10000000000E-01 0.  1.
</event>
<event>
 7   0  0.6206631E-02  0.9118800E+02  0.7818608E-02  0.1180000E+00
       11   -1    0    0    0    0  0.00000000000E+00  0.00000000000E+00  0.11999999989E+02  0.12000000000E+02  0.51109989000E-03 0.  1.
     -623   -1    0    0    0    0  0.00000000000E+00  0.00000000000E+00  0.42561509872E-11  0.25126700000E+02  0.25126700000E+02 0.  1.
      622    2    1    2    0    0  0.21399459712E-01  0.17609089952E-01  0.96967642557E+01  0.96976106440E+01  0.12508858457E+00 0.  0.
       11    1    1    2    0    0 -0.19985401029E-01 -0.18560312336E-01  0.23022276657E+01  0.23023892780E+01  0.51109989000E-03 0.  1.
     -623    1    1    2    0    0 -0.14140586836E-02  0.95122238387E-03  0.10080676665E-02  0.25126700078E+02  0.25126700000E+02 0.  1.
     -611    1    3    3    0    0  0.32304024329E-01  0.56607791427E-01  0.82005452732E+01  0.82008103728E+01  0.10000000000E-01 0.  1.
      611    1    3    3    0    0 -0.10904564616E-01 -0.38998701475E-01  0.14962189825E+01  0.14968002712E+01  0.10000000000E-01 0. -1.
</event>
<event>
 7   0  0.6206631E-02  0.9118800E+02  0.7818608E-02  0.1180000E+00
       11   -1    0    0    0    0  0.00000000000E+00  0.00000000000E+00  0.11999999989E+02  0.12000000000E+02  0.51109989000E-03 0.  1.
     -623   -1    0    0    0    0  0.00000000000E+00  0.00000000000E+00  0.42561509872E-11  0.25126700000E+02  0.25126700000E+02 0.  1.
      622    2    1    2    0    0  0.58576257798E-01  0.29816628889E-01  0.85451477090E+01  0.85459638357E+01  0.98123915294E-01 0.  0.
       11    1    1    2    0    0 -0.65122352257E-01 -0.21170191697E-01  0.34533548890E+01  0.34540337793E+01  0.51109989000E-03 0.  1.
     -623    1    1    2    0    0  0.65460944596E-02 -0.86464371916E-02  0.14973910754E-02  0.25126702385E+02  0.25126700000E+02 0.  1.
     -611    1    3    3    0    0  0.46807091406E-01  0.29908279941E-01  0.83547941990E+01  0.83549848304E+01  0.10000000000E-01 0.  1.
      611    1    3    3    0    0  0.11769166392E-01 -0.91651052597E-04  0.19035350999E+00  0.19097900524E+00  0.10000000000E-01 0. -1.
</event>
<event>
 7   0  0.6206631E-02  0.9118800E+02  0.7818608E-02  0.1180000E+00
       11   -1    0    0    0    0  0.00000000000E+00  0.00000000000E+00  0.11999999989E+02  0.12000000000E+02  0.51109989000E-03 0. -1.
     -623   -1    0    0    0    0  0.00000000000E+00  0.00000000000E+00  0.42561509872E-11  0.25126700000E+02  0.25126700000E+02 0. -1.
      622    2    1    2    0    0  0.30332979262E-02 -0.55767711252E-02  0.11977526185E+02  0.11977924335E+02  0.97455393895E-01 0.  0.
       11    1    1    2    0    0  0.91608777664E-02 -0.12841038548E-01  0.15420361186E-01  0.22064965777E-01  0.51109989000E-03 0. -1.
     -623    1    1    2    0    0 -0.12194175693E-01  0.18417809673E-01  0.70534424635E-02  0.25126710699E+02  0.25126700000E+02 0. -1.
     -611    1    3    3    0    0 -0.20922261923E-01 -0.44460914158E-01  0.69423271158E+01  0.69425082137E+01  0.10000000000E-01 0. -1.
      611    1    3    3    0    0  0.23955559849E-01  0.38884143032E-01  0.50351990696E+01  0.50354161215E+01  0.10000000000E-01 0.  1.
</event>
<event>
 7   0  0.6206631E-02  0.9118800E+02  0.7818608E-02  0.1180000E+00
       11   -1    0    0    0    0  0.00000000000E+00  0.00000000000E+00  0.11999999989E+02  0.12000000000E+02  0.51109989000E-03 0. -1.
     -623   -1    0    0    0    0  0.00000000000E+00  0.00000000000E+00  0.42561509872E-11  0.25126700000E+02  0.25126700000E+02 0.  1.
      622    2    1    2    0    0 -0.49106060543E-02 -0.55926436570E-02  0.11022983514E+02  0.11023331444E+02  0.87265019377E-01 0.  0.
       11    1    1    2    0    0  0.67200281023E-02  0.20662354826E-01  0.97642211536E+00  0.97666396487E+00  0.51109989000E-03 0. -1.
     -623    1    1    2    0    0 -0.18094220480E-02 -0.15069711169E-01  0.59435987224E-03  0.25126704591E+02  0.25126700000E+02 0.  1.
     -611    1    3    3    0    0  0.25477194340E-01 -0.33806196332E-01  0.65556928891E+01  0.65558371855E+01  0.10000000000E-01 0.  1.
      611    1    3    3    0    0 -0.30387800394E-01  0.28213552675E-01  0.44672906247E+01  0.44674942584E+01  0.10000000000E-01 0. -1.
</event>
<event>
 7   0  0.6206631E-02  0.9118800E+02  0.7818608E-02  0.1180000E+00
       11   -1    0    0    0    0  0.00000000000E+00  0.00000000000E+00  0.11999999989E+02  0.12000000000E+02  0.51109989000E-03 0.  1.
     -623   -1    0    0    0    0  0.00000000000E+00  0.00000000000E+00  0.42561509872E-11  0.25126700000E+02  0.25126700000E+02 0. -1.
      622    2    1    2    0    0 -0.68494784024E-02 -0.88884213978E-03  0.11923042621E+02  0.11923260951E+02  0.71823758739E-01 0.  0.
       11    1    1    2    0    0  0.38447851516E-02  0.53873713893E-02  0.76450795698E-01  0.76738461864E-01  0.51109989000E-03 0.  1.
     -623    1    1    2    0    0  0.30046932508E-02 -0.44985292495E-02  0.50657249977E-03  0.25126700587E+02  0.25126700000E+02 0. -1.
     -611    1    3    3    0    0 -0.35702386793E-01  0.11047756399E-01  0.56300737838E+01  0.56302067036E+01  0.10000000000E-01 0.  1.
      611    1    3    3    0    0  0.28852908391E-01 -0.11936598539E-01  0.62929688370E+01  0.62930542470E+01  0.10000000000E-01 0. -1.
</event>
<event>
 7   0  0.6206631E-02  0.9118800E+02  0.7818608E-02  0.1180000E+00
       11   -1    0    0    0    0  0.00000000000E+00  0.00000000000E+00  0.11999999989E+02  0.12000000000E+02  0.51109989000E-03 0.  1.
     -623   -1    0    0    0    0  0.00000000000E+00  0.00000000000E+00  0.42561509872E-11  0.25126700000E+02  0.25126700000E+02 0.  1.
      622    2    1    2    0    0  0.36207344051E-02 -0.11865232580E-01  0.10192330969E+02  0.10192497487E+02  0.56925830904E-01 0.  0.
       11    1    1    2    0    0  0.19698136555E-01  0.17651004286E-01  0.18072974203E+01  0.18074910238E+01  0.51109989000E-03 0.  1.
     -623    1    1    2    0    0 -0.23318870960E-01 -0.57857717058E-02  0.37160020486E-03  0.25126711489E+02  0.25126700000E+02 0.  1.
     -611    1    3    3    0    0 -0.34430210091E-02 -0.41690021509E-02  0.95378336896E+01  0.95378404645E+01  0.10000000000E-01 0.  1.
      611    1    3    3    0    0  0.70637554143E-02 -0.76962304295E-02  0.65449727894E+00  0.65465702222E+00  0.10000000000E-01 0.  1.
</event>
<event>
 7   0  0.6206631E-02  0.9118800E+02  0.7818608E-02  0.1180000E+00
       11   -1    0    0    0    0  0.00000000000E+00  0.00000000000E+00  0.11999999989E+02  0.12000000000E+02  0.51109989000E-03 0. -1.
     -623   -1    0    0    0    0  0.00000000000E+00  0.00000000000E+00  0.42561509872E-11  0.25126700000E+02  0.25126700000E+02 0. -1.
      622    2    1    2    0    0  0.12106873819E-01 -0.74779895240E-02  0.11552221749E+02  0.11552504391E+02  0.79547882737E-01 0.  0.
       11    1    1    2    0    0 -0.64228129280E-02  0.73951868315E-02  0.44738746012E+00  0.44749496311E+00  0.51109989000E-03 0. -1.
     -623    1    1    2    0    0 -0.56840608909E-02  0.82802692487E-04  0.39078004168E-03  0.25126700646E+02  0.25126700000E+02 0. -1.
     -611    1    3    3    0    0 -0.43405404021E-02 -0.15078007298E-01  0.10748948418E+02  0.10748964521E+02  0.10000000000E-01 0. -1.
      611    1    3    3    0    0  0.16447414221E-01  0.76000177737E-02  0.80327333141E+00  0.80353986999E+00  0.10000000000E-01 0.  1.
</event>
<event>
 7   0  0.6206631E-02  0.9118800E+02  0.7818608E-02  0.1180000E+00
       11   -1    0    0    0    0  0.00000000000E+00  0.00000000000E+00  0.11999999989E+02  0.12000000000E+02  0.51109989000E-03 0.  1.
     -623   -1    0    0    0    0  0.00000000000E+00  0.00000000000E+00  0.42561509872E-11  0.25126700000E+02  0.25126700000E+02 0. -1.
      622    2    1    2    0    0 -0.17604115559E-01 -0.38570004402E-01  0.11108131302E+02  0.11108886560E+02  0.12240115867E+00 0.  0.
       11    1    1    2    0    0  0.42852901657E-01  0.42109191866E-01  0.88907255948E+00  0.89110034927E+00  0.51109989000E-03 0.  1.
     -623    1    1    2    0    0 -0.25248786098E-01 -0.35391874637E-02  0.27961280663E-02  0.25126713091E+02  0.25126700000E+02 0. -1.
     -611    1    3    3    0    0 -0.62931854142E-01 -0.34153555506E-01  0.44064534774E+01  0.44070465316E+01  0.10000000000E-01 0. -1.
      611    1    3    3    0    0  0.45327738583E-01 -0.44164488958E-02  0.67016778242E+01  0.67018400285E+01  0.10000000000E-01 0.  1.
</event>
<event>
 7   0  0.6206631E-02  0.9118800E+02  0.7818608E-02  0.1180000E+00
       11   -1    0    0    0    0  0.00000000000E+00  0.00000000000E+00  0.11999999989E+02  0.12000000000E+02  0.51109989000E-03 0. -1.
     -623   -1    0    0    0    0  0.00000000000E+00  0.00000000000E+00  0.42561509872E-11  0.25126700000E+02  0.25126700000E+02 0. -1.
      622    2    1    2    0    0  0.46484217430E-02 -0.11857067558E-02  0.11952613956E+02  0.11953155351E+02  0.11366379247E+00 0.  0.
       11    1    1    2    0    0 -0.79498723942E-03 -0.40847165336E-03  0.46832980695E-01  0.46844296960E-01  0.51109989000E-03 0. -1.
     -623    1    1    2    0    0 -0.38534345036E-02  0.15941784092E-02  0.55305283769E-03  0.25126700352E+02  0.25126700000E+02 0. -1.
     -611    1    3    3    0    0 -0.17225498368E-01 -0.50152099638E-01  0.41523585277E+01  0.41527091511E+01  0.10000000000E-01 0.  1.
      611    1    3    3    0    0  0.21873920111E-01  0.48966392882E-01  0.78002554278E+01  0.78004461998E+01  0.10000000000E-01 0. -1.
</event>
<event>
 7   0  0.6206631E-02  0.9118800E+02  0.7818608E-02  0.1180000E+00
       11   -1    0    0    0    0  0.00000000000E+00  0.00000000000E+00  0.11999999989E+02  0.12000000000E+02  0.51109989000E-03 0.  1.
     -623   -1    0    0    0    0  0.00000000000E+00  0.00000000000E+00  0.42561509872E-11  0.25126700000E+02  0.25126700000E+02 0. -1.
      622    2    1    2    0    0 -0.65336468851E-02 -0.50093005646E-02  0.10423404934E+02  0.10423523733E+02  0.49079740268E-01 0.  0.
       11    1    1    2    0    0 -0.10670929916E-01 -0.40072502212E-03  0.15764335445E+01  0.15764697938E+01  0.51109989000E-03 0.  1.
     -623    1    1    2    0    0  0.17204576801E-01  0.54100255868E-02  0.16151085168E-03  0.25126706473E+02  0.25126700000E+02 0. -1.
     -611    1    3    3    0    0  0.62553973754E-02 -0.22269322595E-01  0.43967864625E+01  0.43968586797E+01  0.10000000000E-01 0. -1.
      611    1    3    3    0    0 -0.12789044261E-01  0.17260022030E-01  0.60266184712E+01  0.60266650534E+01  0.10000000000E-01 0.  1.
</event>
<event>
 7   0  0.6206631E-02  0.9118800E+02  0.7818608E-02  0.1180000E+00
       11   -1    0    0    0    0  0.00000000000E+00  0.00000000000E+00  0.11999999989E+02  0.12000000000E+02  0.51109989000E-03 0.  1.
     -623   -1    0    0    0    0  0.00000000000E+00  0.00000000000E+00  0.42561509872E-11  0.25126700000E+02  0.25126700000E+02 0. -1.
      622    2    1    2    0    0  0.32720375581E-02  0.75500313357E-02  0.11618432178E+02  0.11618828485E+02  0.95610531725E-01 0.  0.
       11    1    1    2    0    0 -0.58296430017E-02 -0.75751056113E-02  0.38105116794E+00  0.38117137980E+00  0.51109989000E-03 0.  1.
     -623    1    1    2    0    0  0.25576054437E-02  0.25074275561E-04  0.51664320352E-03  0.25126700135E+02  0.25126700000E+02 0. -1.
     -611    1    3    3    0    0 -0.13630106884E-02 -0.41156665426E-01  0.69508246046E+01  0.69509537772E+01  0.10000000000E-01 0. -1.
      611    1    3    3    0    0  0.46350482465E-02  0.48706696762E-01  0.46676075734E+01  0.46678747075E+01  0.10000000000E-01 0.  1.
</event>
<event>
 7   0  0.6206631E-02  0.9118800E+02  0.7818608E-02  0.1180000E+00
       11   -1    0    0    0    0  0.00000000000E+00  0.00000000000E+00  0.11999999989E+02  0.12000000000E+02  0.51109989000E-03 0.  1.
     -623   -1    0    0    0    0  0.00000000000E+00  0.00000000000E+00  0.42561509872E-11  0.25126700000E+02  0.25126700000E+02 0.  1.
      622    2    1    2    0    0 -0.17634764727E-03  0.36122047674E-03  0.11996585644E+02  0.11996989210E+02  0.98401380343E-01 0.  0.
       11    1    1    2    0    0  0.10609213396E-02  0.68161164403E-03  0.26857398899E-02  0.30107424997E-02  0.51109989000E-03 0.  1.
     -623    1    1    2    0    0 -0.88457369237E-03 -0.10428321208E-02  0.72860559611E-03  0.25126700048E+02  0.25126700000E+02 0.  1.
     -611    1    3    3    0    0 -0.38973365547E-01 -0.14739362165E-01  0.30486798656E+01  0.30489809928E+01  0.10000000000E-01 0. -1.
      611    1    3    3    0    0  0.38797017899E-01  0.15100582642E-01  0.89479057781E+01  0.89480082169E+01  0.10000000000E-01 0.  1.
</event>
<event>
 7   0  0.6206631E-02  0.9118800E+02  0.7818608E-02  0.1180000E+00
       11   -1    0    0    0    0  0.00000000000E+00  0.00000000000E+00  0.11999999989E+02  0.12000000000E+02  0.51109989000E-03 0. -1.
     -623   -1    0    0    0    0  0.00000000000E+00  0.00000000000E+00  0.42561509872E-11  0.25126700000E+02  0.25126700000E+02 0. -1.
      622    2    1    2    0    0  0.44583391222E-01 -0.16847861470E-02  0.11848470012E+02  0.11849057027E+02  0.10918004242E+00 0.  0.
       11    1    1    2    0    0  0.57793244405E-02  0.47050534497E-01  0.14320739865E+00  0.15085016950E+00  0.51109989000E-03 0. -1.
     -623    1    1    2    0    0 -0.50362715663E-01 -0.45365748350E-01  0.83225786540E-02  0.25126792804E+02  0.25126700000E+02 0. -1.
     -611    1    3    3    0    0  0.72521874817E-01 -0.24419572501E-01  0.65382602772E+01  0.65387157142E+01  0.10000000000E-01 0.  1.
      611    1    3    3    0    0 -0.27938483594E-01  0.22734786354E-01  0.53102097346E+01  0.53103413124E+01  0.10000000000E-01 0. -1.
</event>
<event>
 7   0  0.6206631E-02  0.9118800E+02  0.7818608E-02  0.1180000E+00
       11   -1    0    0    0    0  0.00000000000E+00  0.00000000000E+00  0.11999999989E+02  0.12000000000E+02  0.51109989000E-03 0. -1.
     -623   -1    0    0    0    0  0.00000000000E+00  0.00000000000E+00  0.42561509872E-11  0.25126700000E+02  0.25126700000E+02 0. -1.
      622    2    1    2    0    0  0.82380939794E-02  0.20929405041E-02  0.10971387564E+02  0.10971852394E+02  0.10063613666E+00 0.  0.
       11    1    1    2    0    0 -0.64539403333E-02 -0.54851813588E-02  0.10281122929E+01  0.10281473088E+01  0.51109989000E-03 0. -1.
     -623    1    1    2    0    0 -0.17841536461E-02  0.33922408547E-02  0.50013243506E-03  0.25126700297E+02  0.25126700000E+02 0. -1.
     -611    1    3    3    0    0  0.33824384241E-01 -0.10898262219E-01  0.16404168150E+01  0.16408321633E+01  0.10000000000E-01 0.  1.
      611    1    3    3    0    0 -0.25586290262E-01  0.12991202723E-01  0.93309707488E+01  0.93310202306E+01  0.10000000000E-01 0. -1.
</event>
<event>
 7   0  0.6206631E-02  0.9118800E+02  0.7818608E-02  0.1180000E+00
       11   -1    0    0    0    0  0.00000000000E+00  0.00000000000E+00  0.11999999989E+02  0.12000000000E+02  0.51109989000E-03 0. -1.
     -623   -1    0    0    0    0  0.00000000000E+00  0.00000000000E+00  0.42561509872E-11  0.25126700000E+02  0.25126700000E+02 0. -1.
      622    2    1    2    0    0  0.17787394843E-01  0.68354530763E-01  0.46175749909E+01  0.46194125143E+01  0.10947349882E+00 0.  0.
       11    1    1    2    0    0 -0.21550336899E-01 -0.72587449293E-01  0.73801983130E+01  0.73805867488E+01  0.51109989000E-03 0. -1.
     -623    1    1    2    0    0  0.37629420565E-02  0.42329185295E-02  0.22266851562E-02  0.25126700737E+02  0.25126700000E+02 0. -1.
     -611    1    3    3    0    0 -0.43166219813E-01  0.47724794121E-01  0.23630475027E+01  0.23639446860E+01  0.10000000000E-01 0. -1.
      611    1    3    3    0    0  0.60953614656E-01  0.20629736642E-01  0.22545274883E+01  0.22554678283E+01  0.10000000000E-01 0.  1.
</event>
<event>
 7   0  0.6206631E-02  0.9118800E+02  0.7818608E-02  0.1180000E+00
       11   -1    0    0    0    0  0.00000000000E+00  0.00000000000E+00  0.11999999989E+02  0.12000000000E+02  0.51109989000E-03 0. -1.
     -623   -1    0    0    0    0  0.00000000000E+00  0.00000000000E+00  0.42561509872E-11  0.25126700000E+02  0.25126700000E+02 0.  1.
      622    2    1    2    0    0 -0.96485838758E-03  0.41949286100E-02  0.11774848758E+02  0.11775355517E+02  0.10915921549E+00 0.  0.
       11    1    1    2    0    0  0.27852765467E-02  0.19047793687E-02  0.22461774601E+00  0.22464367117E+00  0.51109989000E-03 0. -1.
     -623    1    1    2    0    0 -0.18204181591E-02 -0.60997079787E-02  0.53348461349E-03  0.25126700812E+02  0.25126700000E+02 0.  1.
     -611    1    3    3    0    0  0.45348748923E-02 -0.13292029947E-01  0.30446393081E+00  0.30495168194E+00  0.10000000000E-01 0.  1.
      611    1    3    3    0    0 -0.54997332798E-02  0.17486958557E-01  0.11470384828E+02  0.11470403835E+02  0.10000000000E-01 0. -1.
</event>
<event>
 7   0  0.6206631E-02  0.9118800E+02  0.7818608E-02  0.1180000E+00
       11   -1    0    0    0    0  0.00000000000E+00  0.00000000000E+00  0.11999999989E+02  0.12000000000E+02  0.51109989000E-03 0.  1.
     -623   -1    0    0    0    0  0.00000000000E+00  0.00000000000E+00  0.42561509872E-11  0.25126700000E+02  0.25126700000E+02 0. -1.
      622    2    1    2    0    0 -0.16449440436E-01 -0.11000732820E+00  0.86084715045E+01  0.86096125063E+01  0.85285805254E-01 0.  0.
       11    1    1    2    0    0  0.16995421510E-01  0.10789227011E+00  0.33886274110E+01  0.33903872313E+01  0.51109989000E-03 0.  1.
     -623    1    1    2    0    0 -0.54598107374E-03  0.21150580825E-02  0.29010736421E-02  0.25126700262E+02  0.25126700000E+02 0. -1.
     -611    1    3    3    0    0  0.19686594857E-01 -0.34074367847E-02  0.24695066189E+01  0.24696076841E+01  0.10000000000E-01 0. -1.
      611    1    3    3    0    0 -0.36136035294E-01 -0.10659989141E+00  0.61389648856E+01  0.61400048222E+01  0.10000000000E-01 0.  1.
</event>
<event>
 7   0  0.6206631E-02  0.9118800E+02  0.7818608E-02  0.1180000E+00
       11   -1    0    0    0    0  0.00000000000E+00  0.00000000000E+00  0.11999999989E+02  0.12000000000E+02  0.51109989000E-03 0. -1.
     -623   -1    0    0    0    0  0.00000000000E+00  0.00000000000E+00  0.42561509872E-11  0.25126700000E+02  0.25126700000E+02 0. -1.
      622    2    1    2    0    0 -0.24983660179E-01  0.49303489895E-01  0.11049981562E+02  0.11050447814E+02  0.85143149225E-01 0.  0.
       11    1    1    2    0    0  0.27694612079E-01 -0.50114388075E-01  0.94782390973E+00  0.94955193039E+00  0.51109989000E-03 0. -1.
     -623    1    1    2    0    0 -0.27109519004E-02  0.81089817943E-03  0.21945171166E-02  0.25126700255E+02  0.25126700000E+02 0. -1.
     -611    1    3    3    0    0  0.26765850796E-01  0.16014322392E-01  0.21672362059E+01  0.21674837120E+01  0.10000000000E-01 0. -1.
      611    1    3    3    0    0 -0.51749510975E-01  0.33289167503E-01  0.88827453563E+01  0.88829641025E+01  0.10000000000E-01 0.  1.
</event>
<event>
 7   0  0.6206631E-02  0.9118800E+02  0.7818608E-02  0.1180000E+00
       11   -1    0    0    0    0  0.00000000000E+00  0.00000000000E+00  0.11999999989E+02  0.12000000000E+02  0.51109989000E-03 0. -1.
     -623   -1    0    0    0    0  0.00000000000E+00  0.00000000000E+00  0.42561509872E-11  0.25126700000E+02  0.25126700000E+02 0.  1.
      622    2    1    2    0    0 -0.20316252841E-02  0.56525900643E-02  0.11982142889E+02  0.11982545318E+02  0.98020429382E-01 0.  0.
       11    1    1    2    0    0  0.50429709379E-02 -0.37541243786E-02  0.16274801304E-01  0.17454380147E-01  0.51109989000E-03 0. -1.
     -623    1    1    2    0    0 -0.30113456538E-02 -0.18984656857E-02  0.15822988850E-02  0.25126700302E+02  0.25126700000E+02 0.  1.
     -611    1    3    3    0    0  0.43632817915E-01  0.15183798451E-01  0.44419625798E+01  0.44422140798E+01  0.10000000000E-01 0. -1.
      611    1    3    3    0    0 -0.45664443199E-01 -0.95312083868E-02  0.75401803091E+01  0.75403312380E+01  0.10000000000E-01 0.  1.
</event>
<event>
 7   0  0.6206631E-02  0.9118800E+02  0.7818608E-02  0.1180000E+00
       11   -1    0    0    0    0  0.00000000000E+00  0.00000000000E+00  0.11999999989E+02  0.12000000000E+02  0.51109989000E-03 0.  1.
     -623   -1    0    0    0    0  0.00000000000E+00  0.00000000000E+00  0.42561509872E-11  0.25126700000E+02  0.25126700000E+02 0. -1.
      622    2    1    2    0    0  0.37338444143E-02 -0.15449700975E-02  0.11141217025E+02  0.11141517858E+02  0.81774288516E-01 0.  0.
       11    1    1    2    0    0 -0.25870492257E-02  0.50483430934E-02  0.85846297613E+00  0.85848187005E+00  0.51109989000E-03 0.  1.
     -623    1    1    2    0    0 -0.11467951885E-02 -0.35033729960E-02  0.31998761872E-03  0.25126700272E+02  0.25126700000E+02 0. -1.
     -611    1    3    3    0    0 -0.20573669867E-02 -0.33393603021E-01  0.26103304764E+01  0.26105640313E+01  0.10000000000E-01 0. -1.
      611    1    3    3    0    0  0.57912114010E-02  0.31848632924E-01  0.85308865491E+01  0.85309538263E+01  0.10000000000E-01 0.  1.
</event>
<event>
 7   0  0.6206631E-02  0.9118800E+02  0.7818608E-02  0.1180000E+00
       11   -1    0    0    0    0  0.00000000000E+00  0.00000000000E+00  0.11999999989E+02  0.12000000000E+02  0.51109989000E-03 0. -1.
     -623   -1    0    0    0    0  0.00000000000E+00  0.00000000000E+00  0.42561509872E-11  0.25126700000E+02  0.25126700000E+02 0.  1.
      622    2    1    2    0    0  0.16416802005E-03  0.16225125701E-02  0.11984167311E+02  0.11984325505E+02  0.61554822707E-01 0.  0.
       11    1    1    2    0    0 -0.97424709356E-03  0.25520153892E-02  0.15425798561E-01  0.15674132331E-01  0.51109989000E-03 0. -1.
     -623    1    1    2    0    0  0.81007907350E-03 -0.41745279593E-02  0.40687934919E-03  0.25126700363E+02  0.25126700000E+02 0.  1.
     -611    1    3    3    0    0  0.26105436093E-01  0.11677564444E-01  0.46567149933E+01  0.46568135445E+01  0.10000000000E-01 0. -1.
      611    1    3    3    0    0 -0.25941268073E-01 -0.10055051874E-01  0.73274523179E+01  0.73275119600E+01  0.10000000000E-01 0.  1.
</event>
<event>
 7   0  0.6206631E-02  0.9118800E+02  0.7818608E-02  0.1180000E+00
       11   -1    0    0    0    0  0.00000000000E+00  0.00000000000E+00  0.11999999989E+02  0.12000000000E+02  0.51109989000E-03 0. -1.
     -623   -1    0    0    0    0  0.00000000000E+00  0.00000000000E+00  0.42561509872E-11  0.25126700000E+02  0.25126700000E+02 0.  1.
      622    2    1    2    0    0 -0.71924445356E-02  0.12003474691E-01  0.11521999152E+02  0.11522464661E+02  0.10262354451E+00 0.  0.
       11    1    1    2    0    0  0.83771528031E-02 -0.10027802922E-01  0.47735615245E+00  0.47753522491E+00  0.51109989000E-03 0. -1.
     -623    1    1    2    0    0 -0.11847082675E-02 -0.19756717682E-02  0.64468450099E-03  0.25126700114E+02  0.25126700000E+02 0.  1.
     -611    1    3    3    0    0  0.21788298407E-01 -0.32982345860E-01  0.73100111296E+01  0.73101248471E+01  0.10000000000E-01 0. -1.
      611    1    3    3    0    0 -0.28980742943E-01  0.44985820550E-01  0.42119880225E+01  0.42123398141E+01  0.10000000000E-01 0.  1.
</event>
<event>
 6   0  0.6206631E-02  0.9118800E+02  0.7818608E-02  0.1180000E+00
       11   -1    0    0    0    0  0.00000000000E+00  0.00000000000E+00  0.11999999989E+02  0.12000000000E+02  0.51109989000E-03 0.  1.
     -623   -1    0    0    0    0  0.00000000000E+00  0.00000000000E+00  0.42561509872E-11  0.25126700000E+02  0.25126700000E+02 0. -1.
       11    1    1    2    0    0  0.27788472442E-01 -0.32332051126E-01  0.10249821909E+00  0.11101219244E+00  0.51109989000E-03 0.  1.
     -623    1    1    2    0    0  0.38507405385E-02  0.17003977810E-01  0.16639228773E-01  0.25126711558E+02  0.25126700000E+02 0. -1.
     -611    1    1    2    0    0  0.19389700342E+00  0.62810118704E-01  0.64217021085E+01  0.64249435117E+01  0.10000000000E-01 0.  1.
      611    1    1    2    0    0 -0.22553621640E+00 -0.47482045388E-01  0.54591604328E+01  0.54640327379E+01  0.10000000000E-01 0. -1.
</event>
<event>
 7   0  0.6206631E-02  0.9118800E+02  0.7818608E-02  0.1180000E+00
       11   -1    0    0    0    0  0.00000000000E+00  0.00000000000E+00  0.11999999989E+02  0.12000000000E+02  0.51109989000E-03 0. -1.
     -623   -1    0    0    0    0  0.00000000000E+00  0.00000000000E+00  0.42561509872E-11  0.25126700000E+02  0.25126700000E+02 0. -1.
      622    2    1    2    0    0  0.13313604381E-01 -0.16566112839E-01  0.10144463678E+02  0.10145119579E+02  0.11338551741E+00 0.  0.
       11    1    1    2    0    0 -0.14053929183E-01  0.14188416539E-01  0.18547727056E+01  0.18548802858E+01  0.51109989000E-03 0. -1.
     -623    1    1    2    0    0  0.74032480204E-03  0.23776962997E-02  0.76360563966E-03  0.25126700135E+02  0.25126700000E+02 0. -1.
     -611    1    3    3    0    0 -0.32555599722E-01 -0.46146151630E-01  0.40982931204E+01  0.40986944062E+01  0.10000000000E-01 0. -1.
      611    1    3    3    0    0  0.45869204103E-01  0.29580038791E-01  0.60461705575E+01  0.60464251730E+01  0.10000000000E-01 0. -1.
</event>
<event>
 7   0  0.6206631E-02  0.9118800E+02  0.7818608E-02  0.1180000E+00
       11   -1    0    0    0    0  0.00000000000E+00  0.00000000000E+00  0.11999999989E+02  0.12000000000E+02  0.51109989000E-03 0. -1.
     -623   -1    0    0    0    0  0.00000000000E+00  0.00000000000E+00  0.42561509872E-11  0.25126700000E+02  0.25126700000E+02 0.  1.
      622    2    1    2    0    0 -0.11070170404E+00  0.30521498527E-01  0.87963410721E+01  0.87976399412E+01  0.98315048392E-01 0.  0.
       11    1    1    2    0    0 -0.73590957532E-02  0.68338672217E-01  0.32011502284E+01  0.32018880956E+01  0.51109989000E-03 0. -1.
     -623    1    1    2    0    0  0.11806079979E+00 -0.98860170744E-01  0.25086885686E-02  0.25127171963E+02  0.25126700000E+02 0.  1.
     -611    1    3    3    0    0 -0.34578259186E-01  0.70132364438E-02  0.74807207702E+00  0.74897040923E+00  0.10000000000E-01 0.  1.
      611    1    3    3    0    0 -0.76123444852E-01  0.23508262083E-01  0.80482689951E+01  0.80486695320E+01  0.10000000000E-01 0. -1.
</event>
<event>
 7   0  0.6206631E-02  0.9118800E+02  0.7818608E-02  0.1180000E+00
       11   -1    0    0    0    0  0.00000000000E+00  0.00000000000E+00  0.11999999989E+02  0.12000000000E+02  0.51109989000E-03 0.  1.
     -623   -1    0    0    0    0  0.00000000000E+00  0.00000000000E+00  0.42561509872E-11  0.25126700000E+02  0.25126700000E+02 0.  1.
      622    2    1    2    0    0  0.32466290846E-02  0.74878253474E-02  0.11947910060E+02  0.11948449038E+02  0.11319452782E+00 0.  0.
       11    1    1    2    0    0  0.37372234521E-02 -0.34876408490E-02  0.51293038529E-01  0.51549660547E-01  0.51109989000E-03 0.  1.
     -623    1    1    2    0    0 -0.69838525368E-02 -0.40001844984E-02  0.79689064732E-03  0.25126701302E+02  0.25126700000E+02 0.  1.
     -611    1    3    3    0    0 -0.17810712546E-01 -0.15746753551E-01  0.10882840424E+02  0.10882870985E+02  0.10000000000E-01 0.  1.
      611    1    3    3    0    0  0.21057341631E-01  0.23234578899E-01  0.10650696355E+01  0.10655780524E+01  0.10000000000E-01 0. -1.
</event>
<event>
 7   0  0.6206631E-02  0.9118800E+02  0.7818608E-02  0.1180000E+00
       11   -1    0    0    0    0  0.00000000000E+00  0.00000000000E+00  0.11999999989E+02  0.12000000000E+02  0.51109989000E-03 0. -1.
     -623   -1    0    0    0    0  0.00000000000E+00  0.00000000000E+00  0.42561509872E-11  0.25126700000E+02  0.25126700000E+02 0. -1.
      622    2    1    2    0    0 -0.10875145623E-01 -0.10942236480E-01  0.11605534895E+02  0.11606386230E+02  0.13972512759E+00 0.  0.
       11    1    1    2    0    0  0.11069374061E-01  0.90583783743E-02  0.39335337578E+00  0.39361367446E+00  0.51109989000E-03 0. -1.
     -623    1    1    2    0    0 -0.19422843896E-03  0.18838581057E-02  0.11117184087E-02  0.25126700096E+02  0.25126700000E+02 0. -1.
     -611    1    3    3    0    0  0.44207727315E-01 -0.53513055778E-01  0.55593736843E+01  0.55598159800E+01  0.10000000000E-01 0.  1.
      611    1    3    3    0    0 -0.55082872938E-01  0.42570819298E-01  0.60461612107E+01  0.60465702495E+01  0.10000000000E-01 0. -1.
</event>
<event>
 7   0  0.6206631E-02  0.9118800E+02  0.7818608E-02  0.1180000E+00
       11   -1    0    0    0    0  0.00000000000E+00  0.00000000000E+00  0.11999999989E+02  0.12000000000E+02  0.51109989000E-03 0. -1.
     -623   -1    0    0    0    0  0.00000000000E+00  0.00000000000E+00  0.42561509872E-11  0.25126700000E+02  0.25126700000E+02 0.  1.
      622    2    1    2    0    0  0.37866977026E-02  0.15657838423E-01  0.11660999790E+02  0.11661247615E+02  0.74299015552E-01 0.  0.
       11    1    1    2    0    0 -0.11362051906E-01 -0.16327223852E-01  0.33816631012E+00  0.33875121991E+00  0.51109989000E-03 0. -1.
     -623    1    1    2    0    0  0.75753542035E-02  0.66938542874E-03  0.83388922046E-03  0.25126701165E+02  0.25126700000E+02 0.  1.
     -611    1    3    3    0    0 -0.27112895726E-01  0.18967493728E-01  0.32368008304E+01  0.32369854017E+01  0.10000000000E-01 0.  1.
      611    1    3    3    0    0  0.30899593429E-01 -0.33096553047E-02  0.84241989593E+01  0.84242622137E+01  0.10000000000E-01 0. -1.
</event>
<event>
 7   0  0.6206631E-02  0.9118800E+02  0.7818608E-02  0.1180000E+00
       11   -1    0    0    0    0  0.00000000000E+00  0.00000000000E+00  0.11999999989E+02  0.12000000000E+02  0.51109989000E-03 0.  1.
     -623   -1    0    0    0    0  0.00000000000E+00  0.00000000000E+00  0.42561509872E-11  0.25126700000E+02  0.25126700000E+02 0. -1.
      622    2    1    2    0    0  0.32044791142E-01 -0.21630666190E-01  0.11736221089E+02  0.11736777613E+02  0.10755701090E+00 0.  0.
       11    1    1    2    0    0 -0.33428082799E-01  0.10919797624E-01  0.26085968303E+00  0.26321989695E+00  0.51109989000E-03 0.  1.
     -623    1    1    2    0    0  0.13832916563E-02  0.10710868566E-01  0.29192166393E-02  0.25126702491E+02  0.25126700000E+02 0. -1.
     -611    1    3    3    0    0  0.57562614660E-01 -0.35282491589E-01  0.10319401448E+02  0.10319627152E+02  0.10000000000E-01 0.  1.
      611    1    3    3    0    0 -0.25517823518E-01  0.13651825399E-01  0.14168196412E+01  0.14171504604E+01  0.10000000000E-01 0. -1.
</event>
<event>
 7   0  0.6206631E-02  0.9118800E+02  0.7818608E-02  0.1180000E+00
       11   -1    0    0    0    0  0.00000000000E+00  0.00000000000E+00  0.11999999989E+02  0.12000000000E+02  0.51109989000E-03 0. -1.
     -623   -1    0    0    0    0  0.00000000000E+00  0.00000000000E+00  0.42561509872E-11  0.25126700000E+02  0.25126700000E+02 0. -1.
      622    2    1    2    0    0  0.11163172031E-03 -0.16795110729E-02  0.11994617932E+02  0.11995064892E+02  0.10353549828E+00 0.  0.
       11    1    1    2    0    0 -0.10835642305E-02  0.11135465563E-02  0.46561379089E-02  0.49350725160E-02  0.51109989000E-03 0. -1.
     -623    1    1    2    0    0  0.97193251019E-03  0.56596451664E-03  0.72591955112E-03  0.25126700036E+02  0.25126700000E+02 0. -1.
     -611    1    3    3    0    0  0.45024128344E-01  0.59317930125E-02  0.33693123702E+01  0.33696332451E+01  0.10000000000E-01 0. -1.
      611    1    3    3    0    0 -0.44912496624E-01 -0.76113040854E-02  0.86253055615E+01  0.86254316468E+01  0.10000000000E-01 0.  1.
</event>
<event>
 7   0  0.6206631E-02  0.9118800E+02  0.7818608E-02  0.1180000E+00
       11   -1    0    0    0    0  0.00000000000E+00  0.00000000000E+00  0.11999999989E+02  0.12000000000E+02  0.51109989000E-03 0. -1.
     -623   -1    0    0    0    0  0.00000000000E+00  0.00000000000E+00  0.42561509872E-11  0.25126700000E+02  0.25126700000E+02 0.  1.
      622    2    1    2    0    0  0.39218946965E-02  0.87431254822E-02  0.85862448051E+01  0.85870183989E+01  0.11486211470E+00 0.  0.
       11    1    1    2    0    0 -0.26605371127E-02 -0.72564713125E-02  0.34129727239E+01  0.34129815133E+01  0.51109989000E-03 0. -1.
     -623    1    1    2    0    0 -0.12613575839E-02 -0.14866541697E-02  0.78246008420E-03  0.25126700088E+02  0.25126700000E+02 0.  1.
     -611    1    3    3    0    0 -0.31833394243E-01  0.30949926696E-01  0.70955928132E+01  0.70957387659E+01  0.10000000000E-01 0. -1.
      611    1    3    3    0    0  0.35755288940E-01 -0.22206801214E-01  0.14906519919E+01  0.14912796330E+01  0.10000000000E-01 0.  1.
</event>
<event>
 7   0  0.6206631E-02  0.9118800E+02  0.7818608E-02  0.1180000E+00
       11   -1    0    0    0    0  0.00000000000E+00  0.00000000000E+00  0.11999999989E+02  0.12000000000E+02  0.51109989000E-03 0. -1.
     -623   -1    0    0    0    0  0.00000000000E+00  0.00000000000E+00  0.42561509872E-11  0.25126700000E+02  0.25126700000E+02 0.  1.
      622    2    1    2    0    0  0.64653596309E-02 -0.59484956762E-02  0.84889849557E+01  0.84894107241E+01  0.84567606830E-01 0.  0.
       11    1    1    2    0    0 -0.11156790158E-02  0.43384520676E-02  0.35105857559E+01  0.35105886511E+01  0.51109989000E-03 0. -1.
     -623    1    1    2    0    0 -0.53496806151E-02  0.16100436085E-02  0.42927759921E-03  0.25126700625E+02  0.25126700000E+02 0.  1.
     -611    1    3    3    0    0 -0.23991201916E-01  0.60600281633E-02  0.69239720165E+01  0.69240234536E+01  0.10000000000E-01 0. -1.
      611    1    3    3    0    0  0.30456561546E-01 -0.12008523840E-01  0.15650129392E+01  0.15653872705E+01  0.10000000000E-01 0. -1.
</event>
<event>
 7   0  0.6206631E-02  0.9118800E+02  0.7818608E-02  0.1180000E+00
       11   -1    0    0    0    0  0.00000000000E+00  0.00000000000E+00  0.11999999989E+02  0.12000000000E+02  0.51109989000E-03 0. -1.
     -623   -1    0    0    0    0  0.00000000000E+00  0.00000000000E+00  0.42561509872E-11  0.25126700000E+02  0.25126700000E+02 0.  1.
      622    2    1    2    0    0  0.10283233253E-02 -0.42271573248E-01  0.11910252760E+02  0.11910642014E+02  0.86512687588E-01 0.  0.
       11    1    1    2    0    0 -0.12885502105E-01  0.32531478325E-01  0.82214451574E-01  0.89352171307E-01  0.51109989000E-03 0. -1.
     -623    1    1    2    0    0  0.11857178779E-01  0.97400949228E-02  0.75327778966E-02  0.25126705815E+02  0.25126700000E+02 0.  1.
     -611    1    3    3    0    0 -0.39100215016E-01 -0.36668038722E-01  0.68957730307E+01  0.68959886212E+01  0.10000000000E-01 0.  1.
      611    1    3    3    0    0  0.40128538341E-01 -0.56035345256E-02  0.50144797289E+01  0.50146533929E+01  0.10000000000E-01 0. -1.
</event>
<event>
 7   0  0.6206631E-02  0.9118800E+02  0.7818608E-02  0.1180000E+00
       11   -1    0    0    0    0  0.00000000000E+00  0.00000000000E+00  0.11999999989E+02  0.12000000000E+02  0.51109989000E-03 0.  1.
     -623   -1    0    0    0    0  0.00000000000E+00  0.00000000000E+00  0.42561509872E-11  0.25126700000E+02  0.25126700000E+02 0.  1.
      622    2    1    2    0    0  0.51587829512E-01 -0.34866517947E-01  0.83980775431E+01  0.83989275053E+01  0.10197961577E+00 0.  0.
       11    1    1    2    0    0 -0.53516763528E-01  0.34484779825E-01  0.36005095148E+01  0.36010723780E+01  0.51109989000E-03 0.  1.
     -623    1    1    2    0    0  0.19289340162E-02  0.38173812251E-03  0.14129312137E-02  0.25126700117E+02  0.25126700000E+02 0.  1.
     -611    1    3    3    0    0  0.38166497496E-01 -0.54838388921E-01  0.77888208955E+01  0.77891138695E+01  0.10000000000E-01 0.  1.
      611    1    3    3    0    0  0.13421332016E-01  0.19971870973E-01  0.60925664760E+00  0.60981363582E+00  0.10000000000E-01 0.  1.
</event>
<event>
 7   0  0.6206631E-02  0.9118800E+02  0.7818608E-02  0.1180000E+00
       11   -1    0    0    0    0  0.00000000000E+00  0.00000000000E+00  0.11999999989E+02  0.12000000000E+02  0.51109989000E-03 0. -1.
     -623   -1    0    0    0    0  0.00000000000E+00  0.00000000000E+00  0.42561509872E-11  0.25126700000E+02  0.25126700000E+02 0. -1.
      622    2    1    2    0    0 -0.98509484025E-02 -0.34122914113E-01  0.10486037785E+02  0.10486463585E+02  0.87570952445E-01 0.  0.
       11    1    1    2    0    0  0.15233160942E-01  0.33213744792E-01  0.15130945696E+01  0.15135358073E+01  0.51109989000E-03 0. -1.
     -623    1    1    2    0    0 -0.53822125391E-02  0.90916932038E-03  0.86763440108E-03  0.25126700608E+02  0.25126700000E+02 0. -1.
     -611    1    3    3    0    0 -0.24697825663E-01  0.22298256482E-01  0.33432561575E+01  0.33434366944E+01  0.10000000000E-01 0.  1.
      611    1    3    3    0    0  0.14846877260E-01 -0.56421170595E-01  0.71427816276E+01  0.71430268905E+01  0.10000000000E-01 0. -1.
</event>
<event>
 7   0  0.6206631E-02  0.9118800E+02  0.7818608E-02  0.1180000E+00
       11   -1    0    0    0    0  0.00000000000E+00  0.00000000000E+00  0.11999999989E+02  0.12000000000E+02  0.51109989000E-03 0. -1.
     -623   -1    0    0    0    0  0.00000000000E+00  0.00000000000E+00  0.42561509872E-11  0.25126700000E+02  0.25126700000E+02 0. -1.
      622    2    1    2    0    0  0.27425543005E-01 -0.27191400212E-01  0.98140921333E+01  0.98147017830E+01  0.10234820895E+00 0.  0.
       11    1    1    2    0    0 -0.21892336266E-01  0.65480302921E-02  0.21851695843E+01  0.21852891169E+01  0.51109989000E-03 0. -1.
     -623    1    1    2    0    0 -0.55332067391E-02  0.20643369920E-01  0.73827151689E-03  0.25126709100E+02  0.25126700000E+02 0. -1.
     -611    1    3    3    0    0  0.10388695701E-01 -0.19147332019E-02  0.89536467519E+01  0.89536585678E+01  0.10000000000E-01 0. -1.
      611    1    3    3    0    0  0.17036847305E-01 -0.25276667010E-01  0.86044538135E+00  0.86104321515E+00  0.10000000000E-01 0.  1.
</event>
<event>
 7   0  0.6206631E-02  0.9118800E+02  0.7818608E-02  0.1180000E+00
       11   -1    0    0    0    0  0.00000000000E+00  0.00000000000E+00  0.11999999989E+02  0.12000000000E+02  0.51109989000E-03 0.  1.
     -623   -1    0    0    0    0  0.00000000000E+00  0.00000000000E+00  0.42561509872E-11  0.25126700000E+02  0.25126700000E+02 0. -1.
      622    2    1    2    0    0 -0.13844294902E-01  0.50727039865E-02  0.87630009797E+01  0.87633949803E+01  0.81780279222E-01 0.  0.
       11    1    1    2    0    0  0.15266075359E-01 -0.15945597323E-01  0.32365272994E+01  0.32366026225E+01  0.51109989000E-03 0.  1.
     -623    1    1    2    0    0 -0.14217804573E-02  0.10872893336E-01  0.47170998993E-03  0.25126702397E+02  0.25126700000E+02 0. -1.
     -611    1    3    3    0    0  0.15259770448E-01 -0.44083911029E-02  0.73622018432E+01  0.73622257690E+01  0.10000000000E-01 0.  1.
      611    1    3    3    0    0 -0.29104065350E-01  0.94810950893E-02  0.14007991365E+01  0.14011692113E+01  0.10000000000E-01 0. -1.
</event>
<event>
 7   0  0.6206631E-02  0.9118800E+02  0.7818608E-02  0.1180000E+00
       11   -1    0    0    0    0  0.00000000000E+00  0.00000000000E+00  0.11999999989E+02  0.12000000000E+02  0.51109989000E-03 0. -1.
     -623   -1    0    0    0    0  0.00000000000E+00  0.00000000000E+00  0.42561509872E-11  0.25126700000E+02  0.25126700000E+02 0. -1.
      622    2    1    2    0    0  0.40195190340E-02 -0.12995848532E+00  0.10451033880E+02  0.10452647098E+02  0.12967971077E+00 0.  0.
       11    1    1    2    0    0 -0.63851534027E-01  0.79481690816E-01  0.15438676887E+01  0.15472304479E+01  0.51109989000E-03 0. -1.
     -623    1    1    2    0    0  0.59832014993E-01  0.50476794507E-01  0.50984207424E-02  0.25126822455E+02  0.25126700000E+02 0. -1.
     -611    1    3    3    0    0 -0.16955078508E-01 -0.95306575826E-01  0.31695270897E+01  0.31710207805E+01  0.10000000000E-01 0.  1.
      611    1    3    3    0    0  0.20974597542E-01 -0.34651909497E-01  0.72815067900E+01  0.72816263170E+01  0.10000000000E-01 0. -1.
</event>
<event>
 7   0  0.6206631E-02  0.9118800E+02  0.7818608E-02  0.1180000E+00
       11   -1    0    0    0    0  0.00000000000E+00  0.00000000000E+00  0.11999999989E+02  0.12000000000E+02  0.51109989000E-03 0.  1.
     -623   -1    0    0    0    0  0.00000000000E+00  0.00000000000E+00  0.42561509872E-11  0.25126700000E+02  0.25126700000E+02 0. -1.
      622    2    1    2    0    0  0.19933402790E-01 -0.31430429059E-01  0.11031174180E+02  0.11031729035E+02  0.10419456247E+00 0.  0.
       11    1    1    2    0    0 -0.42363470564E-01  0.80009948365E-02  0.96728955813E+00  0.96824998324E+00  0.51109989000E-03 0.  1.
     -623    1    1    2    0    0  0.22430067773E-01  0.23429434222E-01  0.15362513367E-02  0.25126720982E+02  0.25126700000E+02 0. -1.
     -611    1    3    3    0    0  0.46882373912E-01 -0.48789095341E-01  0.91464711182E+01  0.91467268599E+01  0.10000000000E-01 0.  1.
      611    1    3    3    0    0 -0.26948971121E-01  0.17358666282E-01  0.18847030615E+01  0.18850021751E+01  0.10000000000E-01 0. -1.
</event>
<event>
 7   0  0.6206631E-02  0.9118800E+02  0.7818608E-02  0.1180000E+00
       11   -1    0    0    0    0  0.00000000000E+00  0.00000000000E+00  0.11999999989E+02  0.12000000000E+02  0.51109989000E-03 0.  1.
     -623   -1    0    0    0    0  0.00000000000E+00  0.00000000000E+00  0.42561509872E-11  0.25126700000E+02  0.25126700000E+02 0. -1.
      622    2    1    2    0    0 -0.54706413488E-03 -0.74592017661E-03  0.11934918503E+02  0.11935455153E+02  0.11317761961E+00 0.  0.
       11    1    1    2    0    0 -0.46378056202E-04 -0.82833988160E-03  0.64537428911E-01  0.64544784851E-01  0.51109989000E-03 0.  1.
     -623    1    1    2    0    0  0.59344219108E-03  0.15742600582E-02  0.54405699046E-03  0.25126700062E+02  0.25126700000E+02 0. -1.
     -611    1    3    3    0    0 -0.17756584907E-01 -0.39470345503E-01  0.97588779707E+01  0.97589790681E+01  0.10000000000E-01 0.  1.
      611    1    3    3    0    0  0.17209520772E-01  0.38724425326E-01  0.21760405325E+01  0.21764760848E+01  0.10000000000E-01 0. -1.
</event>
<event>
 7   0  0.6206631E-02  0.9118800E+02  0.7818608E-02  0.1180000E+00
       11   -1    0    0    0    0  0.00000000000E+00  0.00000000000E+00  0.11999999989E+02  0.12000000000E+02  0.51109989000E-03 0.  1.
     -623   -1    0    0    0    0  0.00000000000E+00  0.00000000000E+00  0.42561509872E-11  0.25126700000E+02  0.25126700000E+02 0. -1.
      622    2    1    2    0    0 -0.28626800905E+00  0.17476755024E+00  0.52618246029E+01  0.52734267701E+01  0.98684743707E-01 0.  0.
       11    1    1    2    0    0  0.28125642199E+00 -0.14081699303E+00  0.67191845275E+01  0.67265426168E+01  0.51109989000E-03 0.  1.
     -623    1    1    2    0    0  0.50115870620E-02 -0.33950557207E-01  0.18990858715E-01  0.25126730613E+02  0.25126700000E+02 0. -1.
     -611    1    3    3    0    0 -0.26160363590E+00  0.16658667913E+00  0.42919635984E+01  0.43031661731E+01  0.10000000000E-01 0. -1.
      611    1    3    3    0    0 -0.24664373154E-01  0.81808711063E-02  0.96986100453E+00  0.97026059699E+00  0.10000000000E-01 0.  1.
</event>
<event>
 7   0  0.6206631E-02  0.9118800E+02  0.7818608E-02  0.1180000E+00
       11   -1    0    0    0    0  0.00000000000E+00  0.00000000000E+00  0.11999999989E+02  0.12000000000E+02  0.51109989000E-03 0. -1.
     -623   -1    0    0    0    0  0.00000000000E+00  0.00000000000E+00  0.42561509872E-11  0.25126700000E+02  0.25126700000E+02 0.  1.
      622    2    1    2    0    0 -0.97677337885E-02 -0.16954912178E-02  0.11782704935E+02  0.11783044973E+02  0.88966067508E-01 0.  0.
       11    1    1    2    0    0  0.11629410958E-01 -0.98065973620E-03  0.21664007529E+00  0.21695480714E+00  0.51109989000E-03 0. -1.
     -623    1    1    2    0    0 -0.18616771691E-02  0.26761509540E-02  0.65497872506E-03  0.25126700220E+02  0.25126700000E+02 0.  1.
     -611    1    3    3    0    0 -0.68931340157E-02  0.16365808142E-01  0.64776223305E+00  0.64808276133E+00  0.10000000000E-01 0.  1.
      611    1    3    3    0    0 -0.28745997728E-02 -0.18061299360E-01  0.11134942702E+02  0.11134962212E+02  0.10000000000E-01 0. -1.
</event>
<event>
 7   0  0.6206631E-02  0.9118800E+02  0.7818608E-02  0.1180000E+00
       11   -1    0    0    0    0  0.00000000000E+00  0.00000000000E+00  0.11999999989E+02  0.12000000000E+02  0.51109989000E-03 0. -1.
     -623   -1    0    0    0    0  0.00000000000E+00  0.00000000000E+00  0.42561509872E-11  0.25126700000E+02  0.25126700000E+02 0. -1.
      622    2    1    2    0    0 -0.48431555384E-01 -0.25800636213E-01  0.74096547270E+01  0.74105331769E+01  0.10003751127E+00 0.  0.
       11    1    1    2    0    0 -0.82753992784E-02 -0.62128573493E-01  0.45888208840E+01  0.45892489373E+01  0.51109989000E-03 0. -1.
     -623    1    1    2    0    0  0.56706954663E-01  0.87929209707E-01  0.15243780593E-02  0.25126917886E+02  0.25126700000E+02 0. -1.
     -611    1    3    3    0    0  0.46652774139E-02 -0.48702492752E-01  0.45655553559E+01  0.45658284467E+01  0.10000000000E-01 0.  1.
      611    1    3    3    0    0 -0.53096832798E-01  0.22901856538E-01  0.28440993712E+01  0.28447047301E+01  0.10000000000E-01 0. -1.
</event>
<event>
 7   0  0.6206631E-02  0.9118800E+02  0.7818608E-02  0.1180000E+00
       11   -1    0    0    0    0  0.00000000000E+00  0.00000000000E+00  0.11999999989E+02  0.12000000000E+02  0.51109989000E-03 0. -1.
     -623   -1    0    0    0    0  0.00000000000E+00  0.00000000000E+00  0.42561509872E-11  0.25126700000E+02  0.25126700000E+02 0.  1.
      622    2    1    2    0    0 -0.10108576760E-01  0.20897103165E-02  0.11871923898E+02  0.11872302272E+02  0.94221251487E-01 0.  0.
       11    1    1    2    0    0  0.32833110707E-02  0.60488856804E-03  0.12765197981E+00  0.12769665303E+00  0.51109989000E-03 0. -1.
     -623    1    1    2    0    0  0.68252656892E-02 -0.26945988846E-02  0.42411124564E-03  0.25126701075E+02  0.25126700000E+02 0.  1.
     -611    1    3    3    0    0 -0.15906518457E-01 -0.36082841778E-01  0.91054869618E+01  0.91055778400E+01  0.10000000000E-01 0. -1.
      611    1    3    3    0    0  0.57979416972E-02  0.38172552094E-01  0.27664369362E+01  0.27667244319E+01  0.10000000000E-01 0.  1.
</event>
<event>
 7   0  0.6206631E-02  0.9118800E+02  0.7818608E-02  0.1180000E+00
       11   -1    0    0    0    0  0.00000000000E+00  0.00000000000E+00  0.11999999989E+02  0.12000000000E+02  0.51109989000E-03 0.  1.
     -623   -1    0    0    0    0  0.00000000000E+00  0.00000000000E+00  0.42561509872E-11  0.25126700000E+02  0.25126700000E+02 0. -1.
      622    2    1    2    0    0  0.18936081464E-02 -0.13304781386E-02  0.11961307149E+02  0.11961654170E+02  0.91084548515E-01 0.  0.
       11    1    1    2    0    0 -0.64263860034E-03  0.17416577723E-02  0.38297418198E-01  0.38345792729E-01  0.51109989000E-03 0.  1.
     -623    1    1    2    0    0 -0.12509695461E-02 -0.41117963369E-03  0.39542146999E-03  0.25126700038E+02  0.25126700000E+02 0. -1.
     -611    1    3    3    0    0  0.21455586481E-01 -0.18668082802E-01  0.10675110146E+02  0.10675152714E+02  0.10000000000E-01 0.  1.
      611    1    3    3    0    0 -0.19561978335E-01  0.17337604664E-01  0.12861970039E+01  0.12865014560E+01  0.10000000000E-01 0. -1.
</event>
<event>
 7   0  0.6206631E-02  0.9118800E+02  0.7818608E-02  0.1180000E+00
       11   -1    0    0    0    0  0.00000000000E+00  0.00000000000E+00  0.11999999989E+02  0.12000000000E+02  0.51109989000E-03 0.  1.
     -623   -1    0    0    0    0  0.00000000000E+00  0.00000000000E+00  0.42561509872E-11  0.25126700000E+02  0.25126700000E+02 0. -1.
      622    2    1    2    0    0 -0.28918914374E-03  0.16017500353E-02  0.11986925364E+02  0.11987428400E+02  0.10980576558E+00 0.  0.
       11    1    1    2    0    0  0.13205308922E-02  0.16008057574E-03  0.12490485297E-01  0.12571510399E-01  0.51109989000E-03 0.  1.
     -623    1    1    2    0    0 -0.10313417485E-02 -0.17618306111E-02  0.58413962754E-03  0.25126700090E+02  0.25126700000E+02 0. -1.
     -611    1    3    3    0    0 -0.35246531103E-01  0.11041158941E-01  0.16845395407E+01  0.16849740916E+01  0.10000000000E-01 0.  1.
      611    1    3    3    0    0  0.34957341959E-01 -0.94394089059E-02  0.10302385823E+02  0.10302454308E+02  0.10000000000E-01 0.  1.
</event>
<event>
 7   0  0.6206631E-02  0.9118800E+02  0.7818608E-02  0.1180000E+00
       11   -1    0    0    0    0  0.00000000000E+00  0.00000000000E+00  0.11999999989E+02  0.12000000000E+02  0.51109989000E-03 0. -1.
     -623   -1    0    0    0    0  0.00000000000E+00  0.00000000000E+00  0.42561509872E-11  0.25126700000E+02  0.25126700000E+02 0. -1.
      622    2    1    2    0    0 -0.23639775326E-01  0.75372401772E-02  0.98858668681E+01  0.98864102801E+01  0.10064215732E+00 0.  0.
       11    1    1    2    0    0  0.33368683571E-01 -0.97950098580E-02  0.21133015362E+01  0.21135877212E+01  0.51109989000E-03 0. -1.
     -623    1    1    2    0    0 -0.97289082447E-02  0.22577696808E-02  0.83158485437E-03  0.25126701999E+02  0.25126700000E+02 0. -1.
     -611    1    3    3    0    0 -0.43576263047E-01  0.10377934134E-02  0.19629921899E+01  0.19635015420E+01  0.10000000000E-01 0.  1.
      611    1    3    3    0    0  0.19936487721E-01  0.64994467638E-02  0.79228746782E+01  0.79229087381E+01  0.10000000000E-01 0. -1.
</event>
<event>
 7   0  0.6206631E-02  0.9118800E+02  0.7818608E-02  0.1180000E+00
       11   -1    0    0    0    0  0.00000000000E+00  0.00000000000E+00  0.11999999989E+02  0.12000000000E+02  0.51109989000E-03 0.  1.
     -623   -1    0    0    0    0  0.00000000000E+00  0.00000000000E+00  0.42561509872E-11  0.25126700000E+02  0.25126700000E+02 0.  1.
      622    2    1    2    0    0 -0.61090305250E-03  0.13327014240E-02  0.11984306665E+02  0.11984888406E+02  0.11807506550E+00 0.  0.
       11    1    1    2    0    0 -0.38656454519E-02 -0.91091744601E-03  0.14570968886E-01  0.15111166161E-01  0.51109989000E-03 0.  1.
     -623    1    1    2    0    0  0.44765485044E-02 -0.42178397797E-03  0.11223550582E-02  0.25126700427E+02  0.25126700000E+02 0.  1.
     -611    1    3    3    0    0 -0.15378359888E-01  0.50174161476E-01  0.87566409668E+01  0.87568039239E+01  0.10000000000E-01 0.  1.
      611    1    3    3    0    0  0.14767456836E-01 -0.48841460052E-01  0.32276656984E+01  0.32280844826E+01  0.10000000000E-01 0. -1.
</event>
<event>
 7   0  0.6206631E-02  0.9118800E+02  0.7818608E-02  0.1180000E+00
       11   -1    0    0    0    0  0.00000000000E+00  0.00000000000E+00  0.11999999989E+02  0.12000000000E+02  0.51109989000E-03 0.  1.
     -623   -1    0    0    0    0  0.00000000000E+00  0.00000000000E+00  0.42561509872E-11  0.25126700000E+02  0.25126700000E+02 0.  1.
      622    2    1    2    0    0  0.16252661332E-01  0.17104626446E-03  0.11334382739E+02  0.11334815643E+02  0.97721021691E-01 0.  0.
       11    1    1    2    0    0 -0.13477955122E-01 -0.67180382718E-02  0.66501265555E+00  0.66518334358E+00  0.51109989000E-03 0.  1.
     -623    1    1    2    0    0 -0.27747062105E-02  0.65469920073E-02  0.60459411218E-03  0.25126701013E+02  0.25126700000E+02 0.  1.
     -611    1    3    3    0    0  0.42027952490E-01 -0.17838546163E-01  0.96307034688E+01  0.96308168847E+01  0.10000000000E-01 0.  1.
      611    1    3    3    0    0 -0.25775291157E-01  0.18009592428E-01  0.17036792707E+01  0.17039987584E+01  0.10000000000E-01 0. -1.
</event>
<event>
 7   0  0.6206631E-02  0.9118800E+02  0.7818608E-02  0.1180000E+00
       11   -1    0    0    0    0  0.00000000000E+00  0.00000000000E+00  0.11999999989E+02  0.12000000000E+02  0.51109989000E-03 0.  1.
     -623   -1    0    0    0    0  0.00000000000E+00  0.00000000000E+00  0.42561509872E-11  0.25126700000E+02  0.25126700000E+02 0. -1.
      622    2    1    2    0    0  0.42217347594E-01 -0.38318722836E-01  0.10598134172E+02  0.10598918300E+02  0.11563120548E+00 0.  0.
       11    1    1    2    0    0 -0.33303200917E-01  0.16445125987E-01  0.14005780667E+01  0.14010705648E+01  0.51109989000E-03 0.  1.
     -623    1    1    2    0    0 -0.89141466771E-02  0.21873596848E-01  0.12877503675E-02  0.25126711135E+02  0.25126700000E+02 0. -1.
     -611    1    3    3    0    0 -0.13437253569E-01 -0.48029537144E-01  0.21992446815E+01  0.21998328494E+01  0.10000000000E-01 0. -1.
      611    1    3    3    0    0  0.55654601163E-01  0.97108143079E-02  0.83988894905E+01  0.83990854507E+01  0.10000000000E-01 0.  1.
</event>
<event>
 7   0  0.6206631E-02  0.9118800E+02  0.7818608E-02  0.1180000E+00
       11   -1    0    0    0    0  0.00000000000E+00  0.00000000000E+00  0.11999999989E+02  0.12000000000E+02  0.51109989000E-03 0.  1.
     -623   -1    0    0    0    0  0.00000000000E+00  0.00000000000E+00  0.42561509872E-11  0.25126700000E+02  0.25126700000E+02 0.  1.
      622    2    1    2    0    0 -0.13483051071E-02  0.11593315787E-01  0.11879654208E+02  0.11880648824E+02  0.15328454481E+00 0.  0.
       11    1    1    2    0    0 -0.15371875311E-01  0.33727233217E-01  0.11339889806E+00  0.11930378081E+00  0.51109989000E-03 0.  1.
     -623    1    1    2    0    0  0.16720180418E-01 -0.45320549004E-01  0.69468830154E-02  0.25126747395E+02  0.25126700000E+02 0.  1.
     -611    1    3    3    0    0 -0.29753371428E-01 -0.35103342491E-01  0.10136244464E+02  0.10136353849E+02  0.10000000000E-01 0.  1.
      611    1    3    3    0    0  0.28405066321E-01  0.46696658278E-01  0.17434097436E+01  0.17442949750E+01  0.10000000000E-01 0. -1.
</event>
<event>
 7   0  0.6206631E-02  0.9118800E+02  0.7818608E-02  0.1180000E+00
       11   -1    0    0    0    0  0.00000000000E+00  0.00000000000E+00  0.11999999989E+02  0.12000000000E+02  0.51109989000E-03 0. -1.
     -623   -1    0    0    0    0  0.00000000000E+00  0.00000000000E+00  0.42561509872E-11  0.25126700000E+02  0.25126700000E+02 0.  1.
      622    2    1    2    0    0 -0.71060480584E-03  0.30855026148E-02  0.11968600912E+02  0.11968828208E+02  0.73694415599E-01 0.  0.
       11    1    1    2    0    0 -0.23198311885E-02  0.67576957847E-02  0.30335430455E-01  0.31169658854E-01  0.51109989000E-03 0. -1.
     -623    1    1    2    0    0  0.30304359943E-02 -0.98431983995E-02  0.10636472061E-02  0.25126702133E+02  0.25126700000E+02 0.  1.
     -611    1    3    3    0    0 -0.27594921113E-02  0.63633306364E-06  0.11713407090E+02  0.11713411684E+02  0.10000000000E-01 0. -1.
      611    1    3    3    0    0  0.20488873055E-02  0.30848662817E-02  0.25519382142E+00  0.25541652419E+00  0.10000000000E-01 0. -1.
</event>
<event>
 7   0  0.6206631E-02  0.9118800E+02  0.7818608E-02  0.1180000E+00
       11   -1    0    0    0    0  0.00000000000E+00  0.00000000000E+00  0.11999999989E+02  0.12000000000E+02  0.51109989000E-03 0.  1.
     -623   -1    0    0    0    0  0.00000000000E+00  0.00000000000E+00  0.42561509872E-11  0.25126700000E+02  0.25126700000E+02 0. -1.
      622    2    1    2    0    0 -0.98251774322E-02 -0.57620127858E-02  0.11108517097E+02  0.11108550158E+02  0.24592332768E-01 0.  0.
       11    1    1    2    0    0  0.83166599403E-02  0.11381170027E-01  0.89133756789E+00  0.89144916794E+00  0.51109989000E-03 0.  1.
     -623    1    1    2    0    0  0.15085174917E-02 -0.56191572408E-02  0.14532415365E-03  0.25126700674E+02  0.25126700000E+02 0. -1.
     -611    1    3    3    0    0 -0.97821085633E-02 -0.24570292785E-02  0.84899960969E+01  0.84900079772E+01  0.10000000000E-01 0.  1.
      611    1    3    3    0    0 -0.43068868923E-04 -0.33049835072E-02  0.26185210003E+01  0.26185421810E+01  0.10000000000E-01 0.  1.
</event>
<event>
 7   0  0.6206631E-02  0.9118800E+02  0.7818608E-02  0.1180000E+00
       11   -1    0    0    0    0  0.00000000000E+00  0.00000000000E+00  0.11999999989E+02  0.12000000000E+02  0.51109989000E-03 0.  1.
     -623   -1    0    0    0    0  0.00000000000E+00  0.00000000000E+00  0.42561509872E-11  0.25126700000E+02  0.25126700000E+02 0.  1.
      622    2    1    2    0    0 -0.52181772300E-03 -0.94230262833E-02  0.11485785162E+02  0.11486010841E+02  0.71380524404E-01 0.  0.
       11    1    1    2    0    0  0.30746954607E-02  0.69551641799E-02  0.51393239507E+00  0.51398890648E+00  0.51109989000E-03 0.  1.
     -623    1    1    2    0    0 -0.25528777378E-02  0.24678621034E-02  0.28243169493E-03  0.25126700252E+02  0.25126700000E+02 0.  1.
     -611    1    3    3    0    0  0.13440901096E-01  0.12419975697E-01  0.95841271738E+01  0.95841498630E+01  0.10000000000E-01 0.  1.
      611    1    3    3    0    0 -0.13962718819E-01 -0.21843001981E-01  0.19016579886E+01  0.19018609780E+01  0.10000000000E-01 0. -1.
</event>
<event>
 7   0  0.6206631E-02  0.9118800E+02  0.7818608E-02  0.1180000E+00
       11   -1    0    0    0    0  0.00000000000E+00  0.00000000000E+00  0.11999999989E+02  0.12000000000E+02  0.51109989000E-03 0. -1.
     -623   -1    0    0    0    0  0.00000000000E+00  0.00000000000E+00  0.42561509872E-11  0.25126700000E+02  0.25126700000E+02 0. -1.
      622    2    1    2    0    0 -0.30312251431E-03  0.20721723779E-02  0.11990585374E+02  0.11990768879E+02  0.66304720119E-01 0.  0.
       11    1    1    2    0    0  0.12355203414E-02  0.32704466070E-02  0.85275400250E-02  0.92305196782E-02  0.51109989000E-03 0. -1.
     -623    1    1    2    0    0 -0.93239782708E-03 -0.53426189849E-02  0.88707486114E-03  0.25126700601E+02  0.25126700000E+02 0. -1.
     -611    1    3    3    0    0  0.19228804920E-01 -0.15337735313E-01  0.24776470337E+01  0.24777893003E+01  0.10000000000E-01 0.  1.
      611    1    3    3    0    0 -0.19531927434E-01  0.17409907691E-01  0.95129383404E+01  0.95129795790E+01  0.10000000000E-01 0. -1.
</event>
<event>
 7   0  0.6206631E-02  0.9118800E+02  0.7818608E-02  0.1180000E+00
       11   -1    0    0    0    0  0.00000000000E+00  0.00000000000E+00  0.11999999989E+02  0.12000000000E+02  0.51109989000E-03 0.  1.
     -623   -1    0    0    0    0  0.00000000000E+00  0.00000000000E+00  0.42561509872E-11  0.25126700000E+02  0.25126700000E+02 0. -1.
      622    2    1    2    0    0  0.25744899486E-02  0.15697450436E-02  0.11990561100E+02  0.11990937338E+02  0.94940275946E-01 0.  0.
       11    1    1    2    0    0 -0.84368628418E-03 -0.25097501695E-02  0.86520714029E-02  0.90625722153E-02  0.51109989000E-03 0.  1.
     -623    1    1    2    0    0 -0.17308036644E-02  0.94000512592E-03  0.78681732463E-03  0.25126700090E+02  0.25126700000E+02 0. -1.
     -611    1    3    3    0    0 -0.34978385205E-01  0.29739702454E-01  0.59695466180E+01  0.59697315485E+01  0.10000000000E-01 0.  1.
      611    1    3    3    0    0  0.37552875154E-01 -0.28169957410E-01  0.60210144824E+01  0.60212057898E+01  0.10000000000E-01 0.  1.
</event>
<event>
 7   0  0.6206631E-02  0.9118800E+02  0.7818608E-02  0.1180000E+00
       11   -1    0    0    0    0  0.00000000000E+00  0.00000000000E+00  0.11999999989E+02  0.12000000000E+02  0.51109989000E-03 0. -1.
     -623   -1    0    0    0    0  0.00000000000E+00  0.00000000000E+00  0.42561509872E-11  0.25126700000E+02  0.25126700000E+02 0.  1.
      622    2    1    2    0    0  0.83588212969E-02 -0.45460219495E-02  0.11462361345E+02  0.11462420262E+02  0.35498177452E-01 0.  0.
       11    1    1    2    0    0 -0.63156748359E-02  0.57755761213E-02  0.53751125234E+00  0.53757962447E+00  0.51109989000E-03 0. -1.
     -623    1    1    2    0    0 -0.20431464612E-02 -0.12295541717E-02  0.12739161160E-03  0.25126700113E+02  0.25126700000E+02 0.  1.
     -611    1    3    3    0    0  0.13555393153E-02 -0.12834489975E-01  0.28831828446E+01  0.28832290712E+01  0.10000000000E-01 0.  1.
      611    1    3    3    0    0  0.70032819817E-02  0.82884680257E-02  0.85791785003E+01  0.85791911906E+01  0.10000000000E-01 0. -1.
</event>
<event>
 7   0  0.6206631E-02  0.9118800E+02  0.7818608E-02  0.1180000E+00
       11   -1    0    0    0    0  0.00000000000E+00  0.00000000000E+00  0.11999999989E+02  0.12000000000E+02  0.51109989000E-03 0.  1.
     -623   -1    0    0    0    0  0.00000000000E+00  0.00000000000E+00  0.42561509872E-11  0.25126700000E+02  0.25126700000E+02 0. -1.
      622    2    1    2    0    0  0.12551106245E-02  0.16104305648E-01  0.10783627819E+02  0.10784209451E+02  0.11083149487E+00 0.  0.
       11    1    1    2    0    0  0.13609691640E-01 -0.41238504556E-01  0.12149976175E+01  0.12157735438E+01  0.51109989000E-03 0.  1.
     -623    1    1    2    0    0 -0.14864802264E-01  0.25134198908E-01  0.13745527844E-02  0.25126717005E+02  0.25126700000E+02 0. -1.
     -611    1    3    3    0    0 -0.58273609625E-02  0.17679415959E-01  0.38847104548E+00  0.38904533548E+00  0.10000000000E-01 0. -1.
      611    1    3    3    0    0  0.70824715870E-02 -0.15751103112E-02  0.10395156773E+02  0.10395164115E+02  0.10000000000E-01 0.  1.
</event>
<event>
 7   0  0.6206631E-02  0.9118800E+02  0.7818608E-02  0.1180000E+00
       11   -1    0    0    0    0  0.00000000000E+00  0.00000000000E+00  0.11999999989E+02  0.12000000000E+02  0.51109989000E-03 0.  1.
     -623   -1    0    0    0    0  0.00000000000E+00  0.00000000000E+00  0.42561509872E-11  0.25126700000E+02  0.25126700000E+02 0. -1.
      622    2    1    2    0    0  0.16278669074E-01 -0.23257209864E-01  0.11008663982E+02  0.11009292717E+02  0.11418214078E+00 0.  0.
       11    1    1    2    0    0 -0.15307550856E-01  0.23526917014E-01  0.99030941693E+00  0.99070724204E+00  0.51109989000E-03 0.  1.
     -623    1    1    2    0    0 -0.97111821804E-03 -0.26970714967E-03  0.10265901445E-02  0.25126700041E+02  0.25126700000E+02 0. -1.
     -611    1    3    3    0    0  0.52172784707E-01 -0.89070293178E-02  0.93241261333E+01  0.93242817141E+01  0.10000000000E-01 0.  1.
      611    1    3    3    0    0 -0.35894115633E-01 -0.14350180546E-01  0.16845378487E+01  0.16850110027E+01  0.10000000000E-01 0. -1.
</event>
<event>
 7   0  0.6206631E-02  0.9118800E+02  0.7818608E-02  0.1180000E+00
       11   -1    0    0    0    0  0.00000000000E+00  0.00000000000E+00  0.11999999989E+02  0.12000000000E+02  0.51109989000E-03 0.  1.
     -623   -1    0    0    0    0  0.00000000000E+00  0.00000000000E+00  0.42561509872E-11  0.25126700000E+02  0.25126700000E+02 0. -1.
      622    2    1    2    0    0 -0.88550669715E-03 -0.23230542823E-02  0.11941653206E+02  0.11941832385E+02  0.65370163912E-01 0.  0.
       11    1    1    2    0    0  0.14670076126E-02  0.35524745628E-02  0.58038207063E-01  0.58167575926E-01  0.51109989000E-03 0.  1.
     -623    1    1    2    0    0 -0.58150091542E-03 -0.12294202805E-02  0.30857651969E-03  0.25126700039E+02  0.25126700000E+02 0. -1.
     -611    1    3    3    0    0 -0.10297456951E-01  0.18842838689E-01  0.19022382949E+01  0.19023857708E+01  0.10000000000E-01 0.  1.
      611    1    3    3    0    0  0.94119502538E-02 -0.21165892971E-01  0.10039414911E+02  0.10039446615E+02  0.10000000000E-01 0.  1.
</event>
<event>
 7   0  0.6206631E-02  0.9118800E+02  0.7818608E-02  0.1180000E+00
       11   -1    0    0    0    0  0.00000000000E+00  0.00000000000E+00  0.11999999989E+02  0.12000000000E+02  0.51109989000E-03 0.  1.
     -623   -1    0    0    0    0  0.00000000000E+00  0.00000000000E+00  0.42561509872E-11  0.25126700000E+02  0.25126700000E+02 0.  1.
      622    2    1    2    0    0 -0.43294402187E-01  0.43398684220E-01  0.43736799956E+01  0.43745198150E+01  0.59908740645E-01 0.  0.
       11    1    1    2    0    0  0.42195656138E-01 -0.46145690433E-01  0.76252235948E+01  0.76254799868E+01  0.51109989000E-03 0.  1.
     -623    1    1    2    0    0  0.10987460494E-02  0.27470062124E-02  0.10963987264E-02  0.25126700198E+02  0.25126700000E+02 0.  1.
     -611    1    3    3    0    0 -0.31339629206E-01  0.28507202851E-02  0.29309210808E+01  0.29311070743E+01  0.10000000000E-01 0.  1.
      611    1    3    3    0    0 -0.11954772980E-01  0.40547963935E-01  0.14427589148E+01  0.14434127408E+01  0.10000000000E-01 0. -1.
</event>
<event>
 7   0  0.6206631E-02  0.9118800E+02  0.7818608E-02  0.1180000E+00
       11   -1    0    0    0    0  0.00000000000E+00  0.00000000000E+00  0.11999999989E+02  0.12000000000E+02  0.51109989000E-03 0. -1.
     -623   -1    0    0    0    0  0.00000000000E+00  0.00000000000E+00  0.42561509872E-11  0.25126700000E+02  0.25126700000E+02 0.  1.
      622    2    1    2    0    0  0.22108333331E-02 -0.48707610973E-02  0.11947412826E+02  0.11947820724E+02  0.98581029731E-01 0.  0.
       11    1    1    2    0    0 -0.63800301020E-02 -0.33568883973E-03  0.51783244232E-01  0.52178377490E-01  0.51109989000E-03 0. -1.
     -623    1    1    2    0    0  0.41691967689E-02  0.52064499370E-02  0.80391910477E-03  0.25126700898E+02  0.25126700000E+02 0.  1.
     -611    1    3    3    0    0 -0.46713890135E-01  0.55407072500E-03  0.65464773448E+01  0.65466516724E+01  0.10000000000E-01 0. -1.
      611    1    3    3    0    0  0.48924723468E-01 -0.54248318223E-02  0.54009354810E+01  0.54011690520E+01  0.10000000000E-01 0.  1.
</event>
<event>
 7   0  0.6206631E-02  0.9118800E+02  0.7818608E-02  0.1180000E+00
       11   -1    0    0    0    0  0.00000000000E+00  0.00000000000E+00  0.11999999989E+02  0.12000000000E+02  0.51109989000E-03 0. -1.
     -623   -1    0    0    0    0  0.00000000000E+00  0.00000000000E+00  0.42561509872E-11  0.25126700000E+02  0.25126700000E+02 0.  1.
      622    2    1    2    0    0 -0.36621966179E-02 -0.35734832564E-02  0.11713623978E+02  0.11714076775E+02  0.10286790060E+00 0.  0.
       11    1    1    2    0    0  0.57181632789E-02  0.25820827355E-02  0.28585381342E+00  0.28592311626E+00  0.51109989000E-03 0. -1.
     -623    1    1    2    0    0 -0.20559666610E-02  0.99140052087E-03  0.52219779566E-03  0.25126700109E+02  0.25126700000E+02 0.  1.
     -611    1    3    3    0    0 -0.11598035822E-01 -0.22319731841E-03  0.11517057343E+02  0.11517067526E+02  0.10000000000E-01 0. -1.
      611    1    3    3    0    0  0.79358392037E-02 -0.33502859380E-02  0.19656663501E+00  0.19700924841E+00  0.10000000000E-01 0.  1.
</event>
<event>
 7   0  0.6206631E-02  0.9118800E+02  0.7818608E-02  0.1180000E+00
       11   -1    0    0    0    0  0.00000000000E+00  0.00000000000E+00  0.11999999989E+02  0.12000000000E+02  0.51109989000E-03 0.  1.
     -623   -1    0    0    0    0  0.00000000000E+00  0.00000000000E+00  0.42561509872E-11  0.25126700000E+02  0.25126700000E+02 0.  1.
      622    2    1    2    0    0 -0.13480606452E-01  0.51263729534E-01  0.50482765174E+01  0.50492401287E+01  0.83188847828E-01 0.  0.
       11    1    1    2    0    0  0.18414543232E-01 -0.46362389671E-01  0.69505798477E+01  0.69507588828E+01  0.51109989000E-03 0.  1.
     -623    1    1    2    0    0 -0.49339367806E-02 -0.49013398631E-02  0.11436240195E-02  0.25126700988E+02  0.25126700000E+02 0.  1.
     -611    1    3    3    0    0  0.20140363776E-01  0.57722870633E-01  0.35398391788E+01  0.35403811908E+01  0.10000000000E-01 0.  1.
      611    1    3    3    0    0 -0.33620970228E-01 -0.64591410996E-02  0.15084373386E+01  0.15088589379E+01  0.10000000000E-01 0.  1.
</event>
<event>
 7   0  0.6206631E-02  0.9118800E+02  0.7818608E-02  0.1180000E+00
       11   -1    0    0    0    0  0.00000000000E+00  0.00000000000E+00  0.11999999989E+02  0.12000000000E+02  0.51109989000E-03 0.  1.
     -623   -1    0    0    0    0  0.00000000000E+00  0.00000000000E+00  0.42561509872E-11  0.25126700000E+02  0.25126700000E+02 0. -1.
      622    2    1    2    0    0 -0.44262226813E-01 -0.14139591746E-01  0.85943533142E+01  0.85951669139E+01  0.10874886207E+00 0.  0.
       11    1    1    2    0    0  0.46775471399E-01  0.15196486972E-01  0.34044776417E+01  0.34048329110E+01  0.51109989000E-03 0.  1.
     -623    1    1    2    0    0 -0.25132445860E-02 -0.10568952260E-02  0.11690332168E-02  0.25126700175E+02  0.25126700000E+02 0. -1.
     -611    1    3    3    0    0 -0.13682015991E-01  0.45825948717E-01  0.42464613743E+01  0.42467424479E+01  0.10000000000E-01 0.  1.
      611    1    3    3    0    0 -0.30580210822E-01 -0.59965540463E-01  0.43478919399E+01  0.43484244660E+01  0.10000000000E-01 0. -1.
</event>
<event>
 7   0  0.6206631E-02  0.9118800E+02  0.7818608E-02  0.1180000E+00
       11   -1    0    0    0    0  0.00000000000E+00  0.00000000000E+00  0.11999999989E+02  0.12000000000E+02  0.51109989000E-03 0.  1.
     -623   -1    0    0    0    0  0.00000000000E+00  0.00000000000E+00  0.42561509872E-11  0.25126700000E+02  0.25126700000E+02 0. -1.
      622    2    1    2    0    0  0.67846017206E-03 -0.27823741028E-03  0.11637119100E+02  0.11637330919E+02  0.70209919065E-01 0.  0.
       11    1    1    2    0    0 -0.64065222267E-03  0.14540234953E-03  0.36266812494E+00  0.36266908009E+00  0.51109989000E-03 0.  1.
     -623    1    1    2    0    0 -0.37807949402E-04  0.13283506075E-03  0.21276453105E-03  0.25126700001E+02  0.25126700000E+02 0. -1.
     -611    1    3    3    0    0  0.70214006364E-02 -0.30195637763E-01  0.80993421902E+01  0.80994076938E+01  0.10000000000E-01 0.  1.
      611    1    3    3    0    0 -0.63429404643E-02  0.29917400353E-01  0.35377769094E+01  0.35379232248E+01  0.10000000000E-01 0. -1.
</event>
<event>
 7   0  0.6206631E-02  0.9118800E+02  0.7818608E-02  0.1180000E+00
       11   -1    0    0    0    0  0.00000000000E+00  0.00000000000E+00  0.11999999989E+02  0.12000000000E+02  0.51109989000E-03 0.  1.
     -623   -1    0    0    0    0  0.00000000000E+00  0.00000000000E+00  0.42561509872E-11  0.25126700000E+02  0.25126700000E+02 0.  1.
      622    2    1    2    0    0  0.17247997739E-01  0.50885571788E-02  0.11671097782E+02  0.11671601810E+02  0.10696720998E+00 0.  0.
       11    1    1    2    0    0  0.72583224820E-02 -0.22863327365E-01  0.32750220074E+00  0.32837991366E+00  0.51109989000E-03 0.  1.
     -623    1    1    2    0    0 -0.24506320221E-01  0.17774770187E-01  0.14000065097E-02  0.25126718277E+02  0.25126700000E+02 0.  1.
     -611    1    3    3    0    0 -0.23974625744E-01  0.27710031530E-01  0.18677267039E+01  0.18681128630E+01  0.10000000000E-01 0.  1.
      611    1    3    3    0    0  0.41222623483E-01 -0.22621474351E-01  0.98033710780E+01  0.98034889467E+01  0.10000000000E-01 0.  1.
</event>
<event>
 7   0  0.6206631E-02  0.9118800E+02  0.7818608E-02  0.1180000E+00
       11   -1    0    0    0    0  0.00000000000E+00  0.00000000000E+00  0.11999999989E+02  0.12000000000E+02  0.51109989000E-03 0.  1.
     -623   -1    0    0    0    0  0.00000000000E+00  0.00000000000E+00  0.42561509872E-11  0.25126700000E+02  0.25126700000E+02 0. -1.
      622    2    1    2    0    0  0.30845475868E-01 -0.24036688750E-01  0.10582462083E+02  0.10583424464E+02  0.13726046442E+00 0.  0.
       11    1    1    2    0    0 -0.26438146460E-01  0.25206314702E-01  0.14161039391E+01  0.14165750814E+01  0.51109989000E-03 0.  1.
     -623    1    1    2    0    0 -0.44073294085E-02 -0.11696259525E-02  0.14339668722E-02  0.25126700455E+02  0.25126700000E+02 0. -1.
     -611    1    3    3    0    0 -0.44998602737E-01 -0.23970048572E-01  0.67439754503E+01  0.67441755843E+01  0.10000000000E-01 0.  1.
      611    1    3    3    0    0  0.75844078605E-01 -0.66640177570E-04  0.38384866329E+01  0.38392488796E+01  0.10000000000E-01 0. -1.
</event>
<event>
 7   0  0.6206631E-02  0.9118800E+02  0.7818608E-02  0.1180000E+00
       11   -1    0    0    0    0  0.00000000000E+00  0.00000000000E+00  0.11999999989E+02  0.12000000000E+02  0.51109989000E-03 0.  1.
     -623   -1    0    0    0    0  0.00000000000E+00  0.00000000000E+00  0.42561509872E-11  0.25126700000E+02  0.25126700000E+02 0. -1.
      622    2    1    2    0    0  0.30199706213E-01  0.35779771176E-01  0.11481408849E+02  0.11481848997E+02  0.88966389923E-01 0.  0.
       11    1    1    2    0    0 -0.30194557143E-01 -0.33859669150E-01  0.51616064729E+00  0.51815081155E+00  0.51109989000E-03 0.  1.
     -623    1    1    2    0    0 -0.51490708861E-05 -0.19201020260E-02  0.24304923296E-02  0.25126700191E+02  0.25126700000E+02 0. -1.
     -611    1    3    3    0    0 -0.12841031327E-01  0.19693507661E-01  0.97427988348E+00  0.97461480478E+00  0.10000000000E-01 0. -1.
      611    1    3    3    0    0  0.43040737541E-01  0.16086263515E-01  0.10507128966E+02  0.10507234193E+02  0.10000000000E-01 0.  1.
</event>
<event>
 7   0  0.6206631E-02  0.9118800E+02  0.7818608E-02  0.1180000E+00
       11   -1    0    0    0    0  0.00000000000E+00  0.00000000000E+00  0.11999999989E+02  0.12000000000E+02  0.51109989000E-03 0. -1.
     -623   -1    0    0    0    0  0.00000000000E+00  0.00000000000E+00  0.42561509872E-11  0.25126700000E+02  0.25126700000E+02 0.  1.
      622    2    1    2    0    0  0.31297155329E-01  0.81562417425E-03  0.10170986694E+02  0.10171365284E+02  0.81983123631E-01 0.  0.
       11    1    1    2    0    0  0.54171209939E-02 -0.35578105730E-01  0.18282295888E+01  0.18285838338E+01  0.51109989000E-03 0. -1.
     -623    1    1    2    0    0 -0.36714276323E-01  0.34762481555E-01  0.78370582732E-03  0.25126750882E+02  0.25126700000E+02 0.  1.
     -611    1    3    3    0    0  0.50381605561E-02 -0.88532846580E-02  0.89688972800E+01  0.89689086395E+01  0.10000000000E-01 0. -1.
      611    1    3    3    0    0  0.26258994773E-01  0.96689088322E-02  0.12020894145E+01  0.12024566449E+01  0.10000000000E-01 0.  1.
</event>
<event>
 7   0  0.6206631E-02  0.9118800E+02  0.7818608E-02  0.1180000E+00
       11   -1    0    0    0    0  0.00000000000E+00  0.00000000000E+00  0.11999999989E+02  0.12000000000E+02  0.51109989000E-03 0.  1.
     -623   -1    0    0    0    0  0.00000000000E+00  0.00000000000E+00  0.42561509872E-11  0.25126700000E+02  0.25126700000E+02 0. -1.
      622    2    1    2    0    0 -0.11079937898E-01  0.11040177608E-01  0.92295489643E+01  0.92297017374E+01  0.50748646905E-01 0.  0.
       11    1    1    2    0    0  0.12252120930E-01 -0.99182018310E-02  0.27702533139E+01  0.27702982096E+01  0.51109989000E-03 0.  1.
     -623    1    1    2    0    0 -0.11721830322E-02 -0.11219757770E-02  0.19771092763E-03  0.25126700053E+02  0.25126700000E+02 0. -1.
     -611    1    3    3    0    0 -0.90036369531E-02 -0.14475846926E-01  0.19335662936E+01  0.19336673000E+01  0.10000000000E-01 0. -1.
      611    1    3    3    0    0 -0.20763009446E-02  0.25516024534E-01  0.72959826708E+01  0.72960344373E+01  0.10000000000E-01 0.  1.
</event>
<event>
 7   0  0.6206631E-02  0.9118800E+02  0.7818608E-02  0.1180000E+00
       11   -1    0    0    0    0  0.00000000000E+00  0.00000000000E+00  0.11999999989E+02  0.12000000000E+02  0.51109989000E-03 0.  1.
     -623   -1    0    0    0    0  0.00000000000E+00  0.00000000000E+00  0.42561509872E-11  0.25126700000E+02  0.25126700000E+02 0. -1.
      622    2    1    2    0    0  0.28523180314E-02 -0.32101989829E-02  0.11994051878E+02  0.11994538293E+02  0.10793505878E+00 0.  0.
       11    1    1    2    0    0  0.35649430923E-02 -0.41006662579E-02 -0.12709386713E-03  0.54590895763E-02  0.51109989000E-03 0.  1.
     -623    1    1    2    0    0 -0.64172611237E-02  0.73108652408E-02  0.60752053903E-02  0.25126702617E+02  0.25126700000E+02 0. -1.
     -611    1    3    3    0    0 -0.44706743680E-02 -0.15420349123E-01  0.37765184970E+00  0.37812523544E+00  0.10000000000E-01 0. -1.
      611    1    3    3    0    0  0.73229923994E-02  0.12210150140E-01  0.11616400028E+02  0.11616413057E+02  0.10000000000E-01 0.  1.
</event>
<event>
 7   0  0.6206631E-02  0.9118800E+02  0.7818608E-02  0.1180000E+00
       11   -1    0    0    0    0  0.00000000000E+00  0.00000000000E+00  0.11999999989E+02  0.12000000000E+02  0.51109989000E-03 0.  1.
     -623   -1    0    0    0    0  0.00000000000E+00  0.00000000000E+00  0.42561509872E-11  0.25126700000E+02  0.25126700000E+02 0.  1.
      622    2    1    2    0    0  0.22829176847E-01  0.38426568978E-01  0.10772141718E+02  0.10773034040E+02  0.13125343680E+00 0.  0.
       11    1    1    2    0    0 -0.27205328834E-01 -0.37253526376E-01  0.12260979153E+01  0.12269654902E+01  0.51109989000E-03 0.  1.
     -623    1    1    2    0    0  0.43761519866E-02 -0.11730426022E-02  0.17603563347E-02  0.25126700470E+02  0.25126700000E+02 0.  1.
     -611    1    3    3    0    0 -0.20798893712E-01 -0.18526924861E-01  0.76303149321E+01  0.76303723241E+01  0.10000000000E-01 0.  1.
      611    1    3    3    0    0  0.43628070559E-01  0.56953493839E-01  0.31418267854E+01  0.31426617156E+01  0.10000000000E-01 0.  1.
</event>
<event>
 7   0  0.6206631E-02  0.9118800E+02  0.7818608E-02  0.1180000E+00
       11   -1    0    0    0    0  0.00000000000E+00  0.00000000000E+00  0.11999999989E+02  0.12000000000E+02  0.51109989000E-03 0. -1.
     -623   -1    0    0    0    0  0.00000000000E+00  0.00000000000E+00  0.42561509872E-11  0.25126700000E+02  0.25126700000E+02 0.  1.
      622    2    1    2    0    0  0.24221536451E-02  0.11958643585E-01  0.11927004740E+02  0.11927692182E+02  0.12747488360E+00 0.  0.
       11    1    1    2    0    0 -0.55971090803E-02 -0.66697044390E-02  0.71779056488E-01  0.72307031199E-01  0.51109989000E-03 0. -1.
     -623    1    1    2    0    0  0.31749554352E-02 -0.52889391462E-02  0.12161925483E-02  0.25126700787E+02  0.25126700000E+02 0.  1.
     -611    1    3    3    0    0 -0.10165893805E-01  0.27579417294E-01  0.11538221610E+02  0.11538263383E+02  0.10000000000E-01 0. -1.
      611    1    3    3    0    0  0.12588047450E-01 -0.15620773709E-01  0.38878313015E+00  0.38942879940E+00  0.10000000000E-01 0.  1.
</event>
<event>
 7   0  0.6206631E-02  0.9118800E+02  0.7818608E-02  0.1180000E+00
       11   -1    0    0    0    0  0.00000000000E+00  0.00000000000E+00  0.11999999989E+02  0.12000000000E+02  0.51109989000E-03 0.  1.
     -623   -1    0    0    0    0  0.00000000000E+00  0.00000000000E+00  0.42561509872E-11  0.25126700000E+02  0.25126700000E+02 0. -1.
      622    2    1    2    0    0 -0.32364597533E-02  0.76428755407E-02  0.11982936183E+02  0.11983355099E+02  0.99854688143E-01 0.  0.
       11    1    1    2    0    0  0.94307164763E-02  0.10122013103E-01  0.92262047135E-02  0.16636635450E-01  0.51109989000E-03 0.  1.
     -623    1    1    2    0    0 -0.61942567230E-02 -0.17764888644E-01  0.78376010608E-02  0.25126708266E+02  0.25126700000E+02 0. -1.
     -611    1    3    3    0    0  0.77883817972E-02 -0.37586152833E-01  0.85109245800E+01  0.85110170123E+01  0.10000000000E-01 0.  1.
      611    1    3    3    0    0 -0.11024841551E-01  0.45229028374E-01  0.34720116033E+01  0.34723380864E+01  0.10000000000E-01 0. -1.
</event>
<event>
 7   0  0.6206631E-02  0.9118800E+02  0.7818608E-02  0.1180000E+00
       11   -1    0    0    0    0  0.00000000000E+00  0.00000000000E+00  0.11999999989E+02  0.12000000000E+02  0.51109989000E-03 0. -1.
     -623   -1    0    0    0    0  0.00000000000E+00  0.00000000000E+00  0.42561509872E-11  0.25126700000E+02  0.25126700000E+02 0.  1.
      622    2    1    2    0    0 -0.17645828818E-01 -0.47086987994E-01  0.31111450864E+01  0.31128910447E+01  0.91314555113E-01 0.  0.
       11    1    1    2    0    0  0.73827646725E-02 -0.29496937245E-01  0.88869380427E+01  0.88869900760E+01  0.51109989000E-03 0. -1.
     -623    1    1    2    0    0  0.10263064146E-01  0.76583925239E-01  0.19168600075E-02  0.25126818879E+02  0.25126700000E+02 0.  1.
     -611    1    3    3    0    0 -0.30873278446E-01 -0.10509600548E-01  0.40095938181E+00  0.40240779923E+00  0.10000000000E-01 0.  1.
      611    1    3    3    0    0  0.13227449628E-01 -0.36577387446E-01  0.27101857046E+01  0.27104832455E+01  0.10000000000E-01 0. -1.
</event>
<event>
 7   0  0.6206631E-02  0.9118800E+02  0.7818608E-02  0.1180000E+00
       11   -1    0    0    0    0  0.00000000000E+00  0.00000000000E+00  0.11999999989E+02  0.12000000000E+02  0.51109989000E-03 0. -1.
     -623   -1    0    0    0    0  0.00000000000E+00  0.00000000000E+00  0.42561509872E-11  0.25126700000E+02  0.25126700000E+02 0. -1.
      622    2    1    2    0    0 -0.25443846221E-02  0.33163550667E-02  0.11962147838E+02  0.11962626128E+02  0.10689016881E+00 0.  0.
       11    1    1    2    0    0  0.75351832937E-02 -0.78672513623E-03  0.36593690722E-01  0.37373216980E-01  0.51109989000E-03 0. -1.
     -623    1    1    2    0    0 -0.49907986716E-02 -0.25296299305E-02  0.12584598842E-02  0.25126700654E+02  0.25126700000E+02 0. -1.
     -611    1    3    3    0    0 -0.19419196793E-01 -0.16056681301E-01  0.82709437724E+00  0.82753853752E+00  0.10000000000E-01 0.  1.
      611    1    3    3    0    0  0.16874812170E-01  0.19373036367E-01  0.11135053461E+02  0.11135087591E+02  0.10000000000E-01 0. -1.
</event>
<event>
 7   0  0.6206631E-02  0.9118800E+02  0.7818608E-02  0.1180000E+00
       11   -1    0    0    0    0  0.00000000000E+00  0.00000000000E+00  0.11999999989E+02  0.12000000000E+02  0.51109989000E-03 0. -1.
     -623   -1    0    0    0    0  0.00000000000E+00  0.00000000000E+00  0.42561509872E-11  0.25126700000E+02  0.25126700000E+02 0.  1.
      622    2    1    2    0    0  0.26604759174E-02  0.18695252757E-01  0.11657770840E+02  0.11658295671E+02  0.10899731328E+00 0.  0.
       11    1    1    2    0    0  0.17619569904E-01  0.11112531263E-02  0.34123153676E+00  0.34168831855E+00  0.51109989000E-03 0. -1.
     -623    1    1    2    0    0 -0.20280045821E-01 -0.19806505883E-01  0.99761266883E-03  0.25126716010E+02  0.25126700000E+02 0.  1.
     -611    1    3    3    0    0  0.44282144624E-01 -0.12244646842E-01  0.80601595464E+01  0.80602966914E+01  0.10000000000E-01 0. -1.
      611    1    3    3    0    0 -0.41621668707E-01  0.30939899599E-01  0.35976112933E+01  0.35979989797E+01  0.10000000000E-01 0.  1.
</event>
<event>
 7   0  0.6206631E-02  0.9118800E+02  0.7818608E-02  0.1180000E+00
       11   -1    0    0    0    0  0.00000000000E+00  0.00000000000E+00  0.11999999989E+02  0.12000000000E+02  0.51109989000E-03 0. -1.
     -623   -1    0    0    0    0  0.00000000000E+00  0.00000000000E+00  0.42561509872E-11  0.25126700000E+02  0.25126700000E+02 0.  1.
      622    2    1    2    0    0  0.34103066222E-01 -0.55216423084E-01  0.64393685273E+01  0.64410947528E+01  0.13424868922E+00 0.  0.
       11    1    1    2    0    0 -0.25787305534E-01  0.46977744247E-01  0.55586440976E+01  0.55589024419E+01  0.51109989000E-03 0. -1.
     -623    1    1    2    0    0 -0.83157606880E-02  0.82386788368E-02  0.19873641655E-02  0.25126702805E+02  0.25126700000E+02 0.  1.
     -611    1    3    3    0    0 -0.28307125098E-02 -0.86545917759E-01  0.52141875006E+01  0.52149160587E+01  0.10000000000E-01 0. -1.
      611    1    3    3    0    0  0.36933778732E-01  0.31329494675E-01  0.12251810268E+01  0.12261786940E+01  0.10000000000E-01 0.  1.
</event>
<event>
 7   0  0.6206631E-02  0.9118800E+02  0.7818608E-02  0.1180000E+00
       11   -1    0    0    0    0  0.00000000000E+00  0.00000000000E+00  0.11999999989E+02  0.12000000000E+02  0.51109989000E-03 0.  1.
     -623   -1    0    0    0    0  0.00000000000E+00  0.00000000000E+00  0.42561509872E-11  0.25126700000E+02  0.25126700000E+02 0. -1.
      622    2    1    2    0    0  0.75099007310E-02 -0.16007987448E-01  0.11195852242E+02  0.11196320444E+02  0.10085341770E+00 0.  0.
       11    1    1    2    0    0 -0.71160246094E-02  0.17546962460E-01  0.80345624519E+00  0.80367949635E+00  0.51109989000E-03 0.  1.
     -623    1    1    2    0    0 -0.39387612157E-03 -0.15389750119E-02  0.69150228613E-03  0.25126700060E+02  0.25126700000E+02 0. -1.
     -611    1    3    3    0    0 -0.35364448566E-02  0.18915744549E-01  0.95712083182E+01  0.95712328873E+01  0.10000000000E-01 0.  1.
      611    1    3    3    0    0  0.11046345588E-01 -0.34923731997E-01  0.16246439234E+01  0.16250875566E+01  0.10000000000E-01 0. -1.
</event>
<event>
 7   0  0.6206631E-02  0.9118800E+02  0.7818608E-02  0.1180000E+00
       11   -1    0    0    0    0  0.00000000000E+00  0.00000000000E+00  0.11999999989E+02  0.12000000000E+02  0.51109989000E-03 0. -1.
     -623   -1    0    0    0    0  0.00000000000E+00  0.00000000000E+00  0.42561509872E-11  0.25126700000E+02  0.25126700000E+02 0. -1.
      622    2    1    2    0    0 -0.11514616062E-01  0.59774285535E-02  0.47735242293E+01  0.47744082511E+01  0.90951990551E-01 0.  0.
       11    1    1    2    0    0  0.10260443297E-01 -0.15941888923E-01  0.72255648358E+01  0.72255897253E+01  0.51109989000E-03 0. -1.
     -623    1    1    2    0    0  0.12541727644E-02  0.99644603695E-02  0.91092402669E-03  0.25126702024E+02  0.25126700000E+02 0. -1.
     -611    1    3    3    0    0  0.36646857741E-01 -0.10979803035E-01  0.22548018741E+01  0.22551485627E+01  0.10000000000E-01 0. -1.
      611    1    3    3    0    0 -0.48161473803E-01  0.16957231588E-01  0.25187223552E+01  0.25192596884E+01  0.10000000000E-01 0.  1.
</event>
<event>
 7   0  0.6206631E-02  0.9118800E+02  0.7818608E-02  0.1180000E+00
       11   -1    0    0    0    0  0.00000000000E+00  0.00000000000E+00  0.11999999989E+02  0.12000000000E+02  0.51109989000E-03 0. -1.
     -623   -1    0    0    0    0  0.00000000000E+00  0.00000000000E+00  0.42561509872E-11  0.25126700000E+02  0.25126700000E+02 0. -1.
      622    2    1    2    0    0 -0.73111626922E-02 -0.53681984109E-02  0.11327352254E+02  0.11327651548E+02  0.81842754139E-01 0.  0.
       11    1    1    2    0    0  0.74772086758E-02  0.50021954720E-02  0.67228806457E+00  0.67234844657E+00  0.51109989000E-03 0. -1.
     -623    1    1    2    0    0 -0.16604598362E-03  0.36600293890E-03  0.35967091686E-03  0.25126700006E+02  0.25126700000E+02 0. -1.
     -611    1    3    3    0    0  0.19581482182E-01 -0.11665440845E-01  0.12067315507E+01  0.12069882155E+01  0.10000000000E-01 0.  1.
      611    1    3    3    0    0 -0.26892644874E-01  0.62972424337E-02  0.10120620703E+02  0.10120663332E+02  0.10000000000E-01 0. -1.
</event>
<event>
 7   0  0.6206631E-02  0.9118800E+02  0.7818608E-02  0.1180000E+00
       11   -1    0    0    0    0  0.00000000000E+00  0.00000000000E+00  0.11999999989E+02  0.12000000000E+02  0.51109989000E-03 0. -1.
     -623   -1    0    0    0    0  0.00000000000E+00  0.00000000000E+00  0.42561509872E-11  0.25126700000E+02  0.25126700000E+02 0.  1.
      622    2    1    2    0    0  0.73618826132E-02  0.67842684789E-02  0.10777722945E+02  0.10777989655E+02  0.75159201672E-01 0.  0.
       11    1    1    2    0    0 -0.67924729966E-02 -0.65506836747E-02  0.12219737928E+01  0.12220103357E+01  0.51109989000E-03 0. -1.
     -623    1    1    2    0    0 -0.56940961660E-03 -0.23358480417E-03  0.30325166578E-03  0.25126700009E+02  0.25126700000E+02 0.  1.
     -611    1    3    3    0    0 -0.82815156024E-02 -0.12126330472E-01  0.93724752509E+01  0.93724920891E+01  0.10000000000E-01 0. -1.
      611    1    3    3    0    0  0.15643398216E-01  0.18910598951E-01  0.14052476938E+01  0.14054975659E+01  0.10000000000E-01 0.  1.
</event>
<event>
 7   0  0.6206631E-02  0.9118800E+02  0.7818608E-02  0.1180000E+00
       11   -1    0    0    0    0  0.00000000000E+00  0.00000000000E+00  0.11999999989E+02  0.12000000000E+02  0.51109989000E-03 0. -1.
     -623   -1    0    0    0    0  0.00000000000E+00  0.00000000000E+00  0.42561509872E-11  0.25126700000E+02  0.25126700000E+02 0. -1.
      622    2    1    2    0    0  0.83064162974E-02  0.24807057984E-01  0.10075987128E+02  0.10076261693E+02  0.69632792801E-01 0.  0.
       11    1    1    2    0    0 -0.49686486709E-02 -0.21632440547E-01  0.19236097641E+01  0.19237378813E+01  0.51109989000E-03 0. -1.
     -623    1    1    2    0    0 -0.33377676265E-02 -0.31746174372E-02  0.40309724291E-03  0.25126700425E+02  0.25126700000E+02 0. -1.
     -611    1    3    3    0    0 -0.11522031936E-01 -0.11143408501E-02  0.78323522182E+01  0.78323671562E+01  0.10000000000E-01 0. -1.
      611    1    3    3    0    0  0.19828448233E-01  0.25921398834E-01  0.22436349095E+01  0.22438945371E+01  0.10000000000E-01 0.  1.
</event>
<event>
 7   0  0.6206631E-02  0.9118800E+02  0.7818608E-02  0.1180000E+00
       11   -1    0    0    0    0  0.00000000000E+00  0.00000000000E+00  0.11999999989E+02  0.12000000000E+02  0.51109989000E-03 0. -1.
     -623   -1    0    0    0    0  0.00000000000E+00  0.00000000000E+00  0.42561509872E-11  0.25126700000E+02  0.25126700000E+02 0. -1.
      622    2    1    2    0    0  0.11944313080E-01 -0.87818888335E-02  0.11928886704E+02  0.11929344708E+02  0.10347642091E+00 0.  0.
       11    1    1    2    0    0 -0.43528066770E-02 -0.10484077468E-01  0.69726860878E-01  0.70646720783E-01  0.51109989000E-03 0. -1.
     -623    1    1    2    0    0 -0.75915064032E-02  0.19265966301E-01  0.13864238801E-02  0.25126708571E+02  0.25126700000E+02 0. -1.
     -611    1    3    3    0    0  0.57246053471E-02 -0.43252316407E-01  0.25885272541E+01  0.25889142278E+01  0.10000000000E-01 0.  1.
      611    1    3    3    0    0  0.62197077330E-02  0.34470427574E-01  0.93403594503E+01  0.93404304802E+01  0.10000000000E-01 0. -1.
</event>
<event>
 7   0  0.6206631E-02  0.9118800E+02  0.7818608E-02  0.1180000E+00
       11   -1    0    0    0    0  0.00000000000E+00  0.00000000000E+00  0.11999999989E+02  0.12000000000E+02  0.51109989000E-03 0.  1.
     -623   -1    0    0    0    0  0.00000000000E+00  0.00000000000E+00  0.42561509872E-11  0.25126700000E+02  0.25126700000E+02 0.  1.
      622    2    1    2    0    0  0.47790772156E-02 -0.20895586847E-01  0.99420671276E+01  0.99424471993E+01  0.84250078367E-01 0.  0.
       11    1    1    2    0    0 -0.66372057997E-02  0.21690890961E-01  0.20574276084E+01  0.20575527143E+01  0.51109989000E-03 0.  1.
     -623    1    1    2    0    0  0.18581285841E-02 -0.79530411380E-03  0.50525311261E-03  0.25126700086E+02  0.25126700000E+02 0.  1.
     -611    1    3    3    0    0 -0.11327309341E-01 -0.39342799758E-01  0.26753720554E+01  0.26757039819E+01  0.10000000000E-01 0.  1.
      611    1    3    3    0    0  0.16106386556E-01  0.18447212911E-01  0.72666950722E+01  0.72667432174E+01  0.10000000000E-01 0. -1.
</event>
<event>
 7   0  0.6206631E-02  0.9118800E+02  0.7818608E-02  0.1180000E+00
       11   -1    0    0    0    0  0.00000000000E+00  0.00000000000E+00  0.11999999989E+02  0.12000000000E+02  0.51109989000E-03 0.  1.
     -623   -1    0    0    0    0  0.00000000000E+00  0.00000000000E+00  0.42561509872E-11  0.25126700000E+02  0.25126700000E+02 0.  1.
      622    2    1    2    0    0 -0.39681125284E-01 -0.17136936228E-01  0.11793752424E+02  0.11794285803E+02  0.10350407242E+00 0.  0.
       11    1    1    2    0    0  0.66923066549E-01 -0.26262905754E-02  0.19447896662E+00  0.20568890082E+00  0.51109989000E-03 0.  1.
     -623    1    1    2    0    0 -0.27241941265E-01  0.19763226804E-01  0.11768598062E-01  0.25126725296E+02  0.25126700000E+02 0.  1.
     -611    1    3    3    0    0  0.21813851800E-01 -0.34186258641E-01  0.65924222397E+01  0.65925545527E+01  0.10000000000E-01 0.  1.
      611    1    3    3    0    0 -0.61494977084E-01  0.17049322413E-01  0.52013301848E+01  0.52017312505E+01  0.10000000000E-01 0. -1.
</event>
<event>
 7   0  0.6206631E-02  0.9118800E+02  0.7818608E-02  0.1180000E+00
       11   -1    0    0    0    0  0.00000000000E+00  0.00000000000E+00  0.11999999989E+02  0.12000000000E+02  0.51109989000E-03 0.  1.
     -623   -1    0    0    0    0  0.00000000000E+00  0.00000000000E+00  0.42561509872E-11  0.25126700000E+02  0.25126700000E+02 0.  1.
      622    2    1    2    0    0 -0.82283422825E-02 -0.13186368515E-02  0.11902946834E+02  0.11903250021E+02  0.84547648368E-01 0.  0.
       11    1    1    2    0    0 -0.11572825660E-01  0.16811757476E-01  0.94558309414E-01  0.96737276092E-01  0.51109989000E-03 0.  1.
     -623    1    1    2    0    0  0.19801167942E-01 -0.15493120625E-01  0.24948461975E-02  0.25126712703E+02  0.25126700000E+02 0.  1.
     -611    1    3    3    0    0 -0.12969132858E-01  0.16728972064E-01  0.11098425522E+02  0.11098450212E+02  0.10000000000E-01 0.  1.
      611    1    3    3    0    0  0.47407905758E-02 -0.18047608915E-01  0.80452131180E+00  0.80479980891E+00  0.10000000000E-01 0. -1.
</event>
<event>
 7   0  0.6206631E-02  0.9118800E+02  0.7818608E-02  0.1180000E+00
       11   -1    0    0    0    0  0.00000000000E+00  0.00000000000E+00  0.11999999989E+02  0.12000000000E+02  0.51109989000E-03 0.  1.
     -623   -1    0    0    0    0  0.00000000000E+00  0.00000000000E+00  0.42561509872E-11  0.25126700000E+02  0.25126700000E+02 0. -1.
      622    2    1    2    0    0 -0.37572114106E-01  0.53538331430E-01  0.61178176597E+01  0.61191488499E+01  0.10959796070E+00 0.  0.
       11    1    1    2    0    0  0.34197245074E-01 -0.41513985127E-01  0.58806020130E+01  0.58808479966E+01  0.51109989000E-03 0.  1.
     -623    1    1    2    0    0  0.33748690329E-02 -0.12024346303E-01  0.15803163563E-02  0.25126703153E+02  0.25126700000E+02 0. -1.
     -611    1    3    3    0    0 -0.74278187540E-01  0.23203111825E-01  0.40374285564E+01  0.40381908055E+01  0.10000000000E-01 0. -1.
      611    1    3    3    0    0  0.36706073433E-01  0.30335219605E-01  0.20803891033E+01  0.20809580444E+01  0.10000000000E-01 0.  1.
</event>
<event>
 7   0  0.6206631E-02  0.9118800E+02  0.7818608E-02  0.1180000E+00
       11   -1    0    0    0    0  0.00000000000E+00  0.00000000000E+00  0.11999999989E+02  0.12000000000E+02  0.51109989000E-03 0.  1.
     -623   -1    0    0    0    0  0.00000000000E+00  0.00000000000E+00  0.42561509872E-11  0.25126700000E+02  0.25126700000E+02 0.  1.
      622    2    1    2    0    0  0.62364854403E-02 -0.10635539657E-01  0.11616781100E+02  0.11617259003E+02  0.10464984788E+00 0.  0.
       11    1    1    2    0    0 -0.47076827660E-02  0.12106882949E-01  0.38252005822E+00  0.38274089807E+00  0.51109989000E-03 0.  1.
     -623    1    1    2    0    0 -0.15288026743E-02 -0.14713432923E-02  0.69883048598E-03  0.25126700099E+02  0.25126700000E+02 0.  1.
     -611    1    3    3    0    0 -0.32683480251E-01 -0.42131133446E-01  0.57793433047E+01  0.57795979338E+01  0.10000000000E-01 0.  1.
      611    1    3    3    0    0  0.38919965691E-01  0.31495593789E-01  0.58374377957E+01  0.58376610689E+01  0.10000000000E-01 0.  1.
</event>
<event>
 7   0  0.6206631E-02  0.9118800E+02  0.7818608E-02  0.1180000E+00
       11   -1    0    0    0    0  0.00000000000E+00  0.00000000000E+00  0.11999999989E+02  0.12000000000E+02  0.51109989000E-03 0. -1.
     -623   -1    0    0    0    0  0.00000000000E+00  0.00000000000E+00  0.42561509872E-11  0.25126700000E+02  0.25126700000E+02 0. -1.
      622    2    1    2    0    0  0.16642116282E-01 -0.13293516160E-01  0.52707911100E+01  0.52713760231E+01  0.75581573199E-01 0.  0.
       11    1    1    2    0    0 -0.19708707490E-01  0.12698175730E-01  0.67285829092E+01  0.67286237748E+01  0.51109989000E-03 0. -1.
     -623    1    1    2    0    0  0.30665912081E-02  0.59534042953E-03  0.62596990633E-03  0.25126700202E+02  0.25126700000E+02 0. -1.
     -611    1    3    3    0    0  0.31070595893E-02 -0.16236712661E-01  0.50045838653E+01  0.50046211594E+01  0.10000000000E-01 0.  1.
      611    1    3    3    0    0  0.13535056693E-01  0.29431965014E-02  0.26620724475E+00  0.26675486373E+00  0.10000000000E-01 0.  1.
</event>
<event>
 7   0  0.6206631E-02  0.9118800E+02  0.7818608E-02  0.1180000E+00
       11   -1    0    0    0    0  0.00000000000E+00  0.00000000000E+00  0.11999999989E+02  0.12000000000E+02  0.51109989000E-03 0. -1.
     -623   -1    0    0    0    0  0.00000000000E+00  0.00000000000E+00  0.42561509872E-11  0.25126700000E+02  0.25126700000E+02 0. -1.
      622    2    1    2    0    0 -0.10139987571E-01  0.34371328692E-02  0.11775814371E+02  0.11776044789E+02  0.72884546317E-01 0.  0.
       11    1    1    2    0    0  0.11723682577E-01  0.55823600058E-02  0.22357619942E+00  0.22395353458E+00  0.51109989000E-03 0. -1.
     -623    1    1    2    0    0 -0.15836950060E-02 -0.90194928751E-02  0.60941915633E-03  0.25126701676E+02  0.25126700000E+02 0. -1.
     -611    1    3    3    0    0  0.27528696648E-01  0.13704902622E-01  0.42860868277E+01  0.42862088082E+01  0.10000000000E-01 0.  1.
      611    1    3    3    0    0 -0.37668684218E-01 -0.10267769753E-01  0.74897275428E+01  0.74898359810E+01  0.10000000000E-01 0. -1.
</event>
<event>
 7   0  0.6206631E-02  0.9118800E+02  0.7818608E-02  0.1180000E+00
       11   -1    0    0    0    0  0.00000000000E+00  0.00000000000E+00  0.11999999989E+02  0.12000000000E+02  0.51109989000E-03 0. -1.
     -623   -1    0    0    0    0  0.00000000000E+00  0.00000000000E+00  0.42561509872E-11  0.25126700000E+02  0.25126700000E+02 0.  1.
      622    2    1    2    0    0 -0.13862487838E-02 -0.86517010659E-02  0.11980262903E+02  0.11981009228E+02  0.13343962349E+00 0.  0.
       11    1    1    2    0    0 -0.20817132210E-02  0.57213333107E-02  0.17980631306E-01  0.18990300420E-01  0.51109989000E-03 0. -1.
     -623    1    1    2    0    0  0.34679620049E-02  0.29303677552E-02  0.17564552539E-02  0.25126700472E+02  0.25126700000E+02 0.  1.
     -611    1    3    3    0    0  0.80190555591E-02  0.34005907204E-01  0.10511607741E+02  0.10511670562E+02  0.10000000000E-01 0. -1.
      611    1    3    3    0    0 -0.94053043429E-02 -0.42657608270E-01  0.14686551618E+01  0.14693386660E+01  0.10000000000E-01 0.  1.
</event>
<event>
 7   0  0.6206631E-02  0.9118800E+02  0.7818608E-02  0.1180000E+00
       11   -1    0    0    0    0  0.00000000000E+00  0.00000000000E+00  0.11999999989E+02  0.12000000000E+02  0.51109989000E-03 0.  1.
     -623   -1    0    0    0    0  0.00000000000E+00  0.00000000000E+00  0.42561509872E-11  0.25126700000E+02  0.25126700000E+02 0. -1.
      622    2    1    2    0    0 -0.85339303224E-02  0.36885129199E-01  0.10708193084E+02  0.10708744320E+02  0.10184518383E+00 0.  0.
       11    1    1    2    0    0  0.98034910156E-02 -0.37611721254E-01  0.12906703851E+01  0.12912556115E+01  0.51109989000E-03 0.  1.
     -623    1    1    2    0    0 -0.12695606932E-02  0.72659205542E-03  0.11365195735E-02  0.25126700068E+02  0.25126700000E+02 0. -1.
     -611    1    3    3    0    0 -0.18062524504E-01  0.32208380639E-01  0.13552816121E+01  0.13558214789E+01  0.10000000000E-01 0.  1.
      611    1    3    3    0    0  0.95285941819E-02  0.46767485597E-02  0.93529114723E+01  0.93529228413E+01  0.10000000000E-01 0.  1.
</event>
<event>
 7   0  0.6206631E-02  0.9118800E+02  0.7818608E-02  0.1180000E+00
       11   -1    0    0    0    0  0.00000000000E+00  0.00000000000E+00  0.11999999989E+02  0.12000000000E+02  0.51109989000E-03 0. -1.
     -623   -1    0    0    0    0  0.00000000000E+00  0.00000000000E+00  0.42561509872E-11  0.25126700000E+02  0.25126700000E+02 0.  1.
      622    2    1    2    0    0 -0.26393490276E-01 -0.17191230951E-01  0.49436133284E+01  0.49445089185E+01  0.88676660073E-01 0.  0.
       11    1    1    2    0    0  0.23485227306E-01  0.16911803531E-01  0.70554315192E+01  0.70554908935E+01  0.51109989000E-03 0. -1.
     -623    1    1    2    0    0  0.29082629697E-02  0.27942742036E-03  0.95514158082E-03  0.25126700188E+02  0.25126700000E+02 0.  1.
     -611    1    3    3    0    0  0.19437963594E-02 -0.24729118357E-01  0.43540490681E+01  0.43541312101E+01  0.10000000000E-01 0. -1.
      611    1    3    3    0    0 -0.28337286635E-01  0.75378874059E-02  0.58956426028E+00  0.59037770838E+00  0.10000000000E-01 0.  1.
</event>
<event>
 7   0  0.6206631E-02  0.9118800E+02  0.7818608E-02  0.1180000E+00
       11   -1    0    0    0    0  0.00000000000E+00  0.00000000000E+00  0.11999999989E+02  0.12000000000E+02  0.51109989000E-03 0.  1.
     -623   -1    0    0    0    0  0.00000000000E+00  0.00000000000E+00  0.42561509872E-11  0.25126700000E+02  0.25126700000E+02 0.  1.
      622    2    1    2    0    0 -0.17158858897E+00  0.13806341843E+00  0.10184755535E+02  0.10187561874E+02  0.93099250196E-01 0.  0.
       11    1    1    2    0    0  0.21720748873E+00 -0.13292330429E+00  0.17944081671E+01  0.18123875495E+01  0.51109989000E-03 0.  1.
     -623    1    1    2    0    0 -0.45618899760E-01 -0.51401141421E-02  0.20836286849E-01  0.25126750577E+02  0.25126700000E+02 0.  1.
     -611    1    3    3    0    0  0.64994472492E-02  0.78107799287E-02  0.29932480831E+00  0.29966413193E+00  0.10000000000E-01 0. -1.
      611    1    3    3    0    0 -0.17808803622E+00  0.13025263850E+00  0.98854307268E+01  0.98878977418E+01  0.10000000000E-01 0. -1.
</event>
<event>
 7   0  0.6206631E-02  0.9118800E+02  0.7818608E-02  0.1180000E+00
       11   -1    0    0    0    0  0.00000000000E+00  0.00000000000E+00  0.11999999989E+02  0.12000000000E+02  0.51109989000E-03 0. -1.
     -623   -1    0    0    0    0  0.00000000000E+00  0.00000000000E+00  0.42561509872E-11  0.25126700000E+02  0.25126700000E+02 0.  1.
      622    2    1    2    0    0  0.11368874137E-02  0.32174280209E-03  0.11998125074E+02  0.11998403852E+02  0.81782055703E-01 0.  0.
       11    1    1    2    0    0 -0.42559798839E-03 -0.64974493397E-03  0.12973452034E-02  0.15961296324E-02  0.51109989000E-03 0. -1.
     -623    1    1    2    0    0 -0.71128942526E-03  0.32800213188E-03  0.57757024242E-03  0.25126700019E+02  0.25126700000E+02 0.  1.
     -611    1    3    3    0    0 -0.37547609267E-01 -0.10484754705E-01  0.55487474618E+01  0.55488934165E+01  0.10000000000E-01 0.  1.
      611    1    3    3    0    0  0.38684496681E-01  0.10806497507E-01  0.64493776119E+01  0.64495104350E+01  0.10000000000E-01 0. -1.
</event>
<event>
 7   0  0.6206631E-02  0.9118800E+02  0.7818608E-02  0.1180000E+00
       11   -1    0    0    0    0  0.00000000000E+00  0.00000000000E+00  0.11999999989E+02  0.12000000000E+02  0.51109989000E-03 0. -1.
     -623   -1    0    0    0    0  0.00000000000E+00  0.00000000000E+00  0.42561509872E-11  0.25126700000E+02  0.25126700000E+02 0.  1.
      622    2    1    2    0    0  0.79194161130E-02  0.41185472590E-02  0.11914723060E+02  0.11915168956E+02  0.10269364331E+00 0.  0.
       11    1    1    2    0    0 -0.72995237191E-03 -0.10221492731E-01  0.84206465841E-01  0.84829251185E-01  0.51109989000E-03 0. -1.
     -623    1    1    2    0    0 -0.71894637411E-02  0.61029454718E-02  0.10704634219E-02  0.25126701793E+02  0.25126700000E+02 0.  1.
     -611    1    3    3    0    0  0.16692622153E-01 -0.19359301721E-01  0.11030669960E+02  0.11030704111E+02  0.10000000000E-01 0. -1.
      611    1    3    3    0    0 -0.87732060395E-02  0.23477848980E-01  0.88405309983E+00  0.88446484490E+00  0.10000000000E-01 0. -1.
</event>
<event>
 7   0  0.6206631E-02  0.9118800E+02  0.7818608E-02  0.1180000E+00
       11   -1    0    0    0    0  0.00000000000E+00  0.00000000000E+00  0.11999999989E+02  0.12000000000E+02  0.51109989000E-03 0. -1.
     -623   -1    0    0    0    0  0.00000000000E+00  0.00000000000E+00  0.42561509872E-11  0.25126700000E+02  0.25126700000E+02 0. -1.
      622    2    1    2    0    0  0.23967947271E-02 -0.59701378510E-02  0.11985554143E+02  0.11985972546E+02  0.99941801746E-01 0.  0.
       11    1    1    2    0    0  0.58491763810E-02  0.64459956330E-02  0.10986344222E-01  0.14025858495E-01  0.51109989000E-03 0. -1.
     -623    1    1    2    0    0 -0.82459711080E-02 -0.47585778194E-03  0.34595017937E-02  0.25126701596E+02  0.25126700000E+02 0. -1.
     -611    1    3    3    0    0 -0.12687549846E-01  0.32127599864E-01  0.19611178267E+01  0.19614474979E+01  0.10000000000E-01 0.  1.
      611    1    3    3    0    0  0.15084344573E-01 -0.38097737716E-01  0.10024436316E+02  0.10024525048E+02  0.10000000000E-01 0. -1.
</event>
<event>
 7   0  0.6206631E-02  0.9118800E+02  0.7818608E-02  0.1180000E+00
       11   -1    0    0    0    0  0.00000000000E+00  0.00000000000E+00  0.11999999989E+02  0.12000000000E+02  0.51109989000E-03 0. -1.
     -623   -1    0    0    0    0  0.00000000000E+00  0.00000000000E+00  0.42561509872E-11  0.25126700000E+02  0.25126700000E+02 0. -1.
      622    2    1    2    0    0  0.68424616930E-02 -0.98121648214E-02  0.11891172917E+02  0.11891345941E+02  0.63022649076E-01 0.  0.
       11    1    1    2    0    0 -0.11132766224E-01  0.35011623357E-02  0.10802310858E+00  0.10865288690E+00  0.51109989000E-03 0. -1.
     -623    1    1    2    0    0  0.42903045314E-02  0.63110024857E-02  0.80396337542E-03  0.25126701172E+02  0.25126700000E+02 0. -1.
     -611    1    3    3    0    0 -0.46703458896E-02  0.21922928618E-01  0.71575852423E+01  0.71576273253E+01  0.10000000000E-01 0.  1.
      611    1    3    3    0    0  0.11512807583E-01 -0.31735093440E-01  0.47335876749E+01  0.47337186161E+01  0.10000000000E-01 0. -1.
</event>
<event>
 7   0  0.6206631E-02  0.9118800E+02  0.7818608E-02  0.1180000E+00
       11   -1    0    0    0    0  0.00000000000E+00  0.00000000000E+00  0.11999999989E+02  0.12000000000E+02  0.51109989000E-03 0. -1.
     -623   -1    0    0    0    0  0.00000000000E+00  0.00000000000E+00  0.42561509872E-11  0.25126700000E+02  0.25126700000E+02 0. -1.
      622    2    1    2    0    0 -0.11597946428E-01  0.44536542306E-01  0.77550111187E+01  0.77559404677E+01  0.11089216110E+00 0.  0.
       11    1    1    2    0    0  0.18410277378E-01 -0.46319831874E-01  0.42437657757E+01  0.42440585158E+01  0.51109989000E-03 0. -1.
     -623    1    1    2    0    0 -0.68123309499E-02  0.17832895684E-02  0.12230947274E-02  0.25126701017E+02  0.25126700000E+02 0. -1.
     -611    1    3    3    0    0  0.70447161681E-02 -0.35289661692E-01  0.25863119915E+01  0.25865816642E+01  0.10000000000E-01 0.  1.
      611    1    3    3    0    0 -0.18642662596E-01  0.79826203997E-01  0.51686991272E+01  0.51693588034E+01  0.10000000000E-01 0. -1.
</event>
<event>
 7   0  0.6206631E-02  0.9118800E+02  0.7818608E-02  0.1180000E+00
       11   -1    0    0    0    0  0.00000000000E+00  0.00000000000E+00  0.11999999989E+02  0.12000000000E+02  0.51109989000E-03 0.  1.
     -623   -1    0    0    0    0  0.00000000000E+00  0.00000000000E+00  0.42561509872E-11  0.25126700000E+02  0.25126700000E+02 0. -1.
      622    2    1    2    0    0  0.19729479010E-02  0.23553071465E-02  0.10535685814E+02  0.10535709815E+02  0.22277694740E-01 0.  0.
       11    1    1    2    0    0  0.40547808456E-02 -0.24076968223E-02  0.14642817783E+01  0.14642894611E+01  0.51109989000E-03 0.  1.
     -623    1    1    2    0    0 -0.60277287466E-02  0.52389675696E-04  0.32396002291E-04  0.25126700723E+02  0.25126700000E+02 0. -1.
     -611    1    3    3    0    0  0.42494771709E-03  0.22095952556E-02  0.30634302513E+01  0.30634473992E+01  0.10000000000E-01 0.  1.
      611    1    3    3    0    0  0.15480001839E-02  0.14571189093E-03  0.74722555631E+01  0.74722624163E+01  0.10000000000E-01 0.  1.
</event>
<event>
 7   0  0.6206631E-02  0.9118800E+02  0.7818608E-02  0.1180000E+00
       11   -1    0    0    0    0  0.00000000000E+00  0.00000000000E+00  0.11999999989E+02  0.12000000000E+02  0.51109989000E-03 0. -1.
     -623   -1    0    0    0    0  0.00000000000E+00  0.00000000000E+00  0.42561509872E-11  0.25126700000E+02  0.25126700000E+02 0.  1.
      622    2    1    2    0    0 -0.30250772032E-03 -0.22112672278E-03  0.11994349315E+02  0.11994828020E+02  0.10716148000E+00 0.  0.
       11    1    1    2    0    0  0.23006160006E-02 -0.34039977470E-02  0.30989117957E-02  0.51715096529E-02  0.51109989000E-03 0. -1.
     -623    1    1    2    0    0 -0.19981082803E-02  0.36251244698E-02  0.25517618374E-02  0.25126700471E+02  0.25126700000E+02 0.  1.
     -611    1    3    3    0    0 -0.22503267889E-01 -0.84252665859E-02  0.75352937330E+00  0.75397871231E+00  0.10000000000E-01 0.  1.
      611    1    3    3    0    0  0.22200760168E-01  0.82041398631E-02  0.11240819942E+02  0.11240849307E+02  0.10000000000E-01 0. -1.
</event>
<event>
 7   0  0.6206631E-02  0.9118800E+02  0.7818608E-02  0.1180000E+00
       11   -1    0    0    0    0  0.00000000000E+00  0.00000000000E+00  0.11999999989E+02  0.12000000000E+02  0.51109989000E-03 0.  1.
     -623   -1    0    0    0    0  0.00000000000E+00  0.00000000000E+00  0.42561509872E-11  0.25126700000E+02  0.25126700000E+02 0. -1.
      622    2    1    2    0    0 -0.21091032427E-03 -0.11189540168E-02  0.11987943869E+02  0.11988082022E+02  0.57541977083E-01 0.  0.
       11    1    1    2    0    0  0.14329209819E-02  0.10746998161E-02  0.11771490079E-01  0.11917946302E-01  0.51109989000E-03 0.  1.
     -623    1    1    2    0    0 -0.12220106577E-02  0.44254200678E-04  0.28463036718E-03  0.25126700031E+02  0.25126700000E+02 0. -1.
     -611    1    3    3    0    0 -0.11889998819E-01 -0.13996641852E-02  0.11058091753E+02  0.11058102755E+02  0.10000000000E-01 0.  1.
      611    1    3    3    0    0  0.11679088495E-01  0.28071016839E-03  0.92985211585E+00  0.92997926711E+00  0.10000000000E-01 0. -1.
</event>
<event>
 7   0  0.6206631E-02  0.9118800E+02  0.7818608E-02  0.1180000E+00
       11   -1    0    0    0    0  0.00000000000E+00  0.00000000000E+00  0.11999999989E+02  0.12000000000E+02  0.51109989000E-03 0. -1.
     -623   -1    0    0    0    0  0.00000000000E+00  0.00000000000E+00  0.42561509872E-11  0.25126700000E+02  0.25126700000E+02 0. -1.
      622    2    1    2    0    0  0.22828151569E-01  0.12538463581E-01  0.95157767830E+01  0.95161179709E+01  0.76256899255E-01 0.  0.
       11    1    1    2    0    0 -0.23944978306E-01 -0.14636852989E-02  0.24837636562E+01  0.24838795594E+01  0.51109989000E-03 0. -1.
     -623    1    1    2    0    0  0.11168267378E-02 -0.11074778282E-01  0.45954985791E-03  0.25126702470E+02  0.25126700000E+02 0. -1.
     -611    1    3    3    0    0  0.49305480452E-01  0.19199412402E-02  0.60055687072E+01  0.60057797340E+01  0.10000000000E-01 0. -1.
      611    1    3    3    0    0 -0.26477328883E-01  0.10618522341E-01  0.35102080758E+01  0.35103382369E+01  0.10000000000E-01 0.  1.
</event>
<event>
 7   0  0.6206631E-02  0.9118800E+02  0.7818608E-02  0.1180000E+00
       11   -1    0    0    0    0  0.00000000000E+00  0.00000000000E+00  0.11999999989E+02  0.12000000000E+02  0.51109989000E-03 0.  1.
     -623   -1    0    0    0    0  0.00000000000E+00  0.00000000000E+00  0.42561509872E-11  0.25126700000E+02  0.25126700000E+02 0.  1.
      622    2    1    2    0    0 -0.60097960370E-01  0.29386202815E-01  0.10408405205E+02  0.10409407291E+02  0.12800752558E+00 0.  0.
       11    1    1    2    0    0  0.50543176845E-02 -0.36217276424E-01  0.15901109337E+01  0.15905314458E+01  0.51109989000E-03 0.  1.
     -623    1    1    2    0    0  0.55043642686E-01  0.68310736092E-02  0.14838500708E-02  0.25126761263E+02  0.25126700000E+02 0.  1.
     -611    1    3    3    0    0 -0.81901622627E-01  0.38995257223E-01  0.98316068929E+01  0.98320304415E+01  0.10000000000E-01 0.  1.
      611    1    3    3    0    0  0.21803662257E-01 -0.96090544078E-02  0.57679831240E+00  0.57737684990E+00  0.10000000000E-01 0. -1.
</event>
<event>
 7   0  0.6206631E-02  0.9118800E+02  0.7818608E-02  0.1180000E+00
       11   -1    0    0    0    0  0.00000000000E+00  0.00000000000E+00  0.11999999989E+02  0.12000000000E+02  0.51109989000E-03 0.  1.
     -623   -1    0    0    0    0  0.00000000000E+00  0.00000000000E+00  0.42561509872E-11  0.25126700000E+02  0.25126700000E+02 0.  1.
      622    2    1    2    0    0  0.46808864761E-01  0.13063232003E-01  0.48375930910E+01  0.48387529447E+01  0.94135155733E-01 0.  0.
       11    1    1    2    0    0 -0.62284514194E-01 -0.23838445033E-01  0.71609293757E+01  0.71612399357E+01  0.51109989000E-03 0.  1.
     -623    1    1    2    0    0  0.15475649433E-01  0.10775213030E-01  0.14775224146E-02  0.25126707120E+02  0.25126700000E+02 0.  1.
     -611    1    3    3    0    0  0.51967358333E-01  0.46175109440E-02  0.47230925629E+01  0.47233912908E+01  0.10000000000E-01 0.  1.
      611    1    3    3    0    0 -0.51584935718E-02  0.84457210591E-02  0.11450052808E+00  0.11536165390E+00  0.10000000000E-01 0. -1.
</event>
<event>
 7   0  0.6206631E-02  0.9118800E+02  0.7818608E-02  0.1180000E+00
       11   -1    0    0    0    0  0.00000000000E+00  0.00000000000E+00  0.11999999989E+02  0.12000000000E+02  0.51109989000E-03 0. -1.
     -623   -1    0    0    0    0  0.00000000000E+00  0.00000000000E+00  0.42561509872E-11  0.25126700000E+02  0.25126700000E+02 0. -1.
      622    2    1    2    0    0 -0.30014073377E-02  0.56912855838E-01  0.10094439775E+02  0.10095111601E+02  0.10156657911E+00 0.  0.
       11    1    1    2    0    0 -0.85170095945E-02 -0.58851660735E-01  0.19039571836E+01  0.19048856332E+01  0.51109989000E-03 0. -1.
     -623    1    1    2    0    0  0.11518416932E-01  0.19388048976E-02  0.16030300778E-02  0.25126702766E+02  0.25126700000E+02 0. -1.
     -611    1    3    3    0    0 -0.59560735490E-02  0.75749640061E-01  0.94528592303E+01  0.94531698975E+01  0.10000000000E-01 0. -1.
      611    1    3    3    0    0  0.29546662113E-02 -0.18836784223E-01  0.64158054516E+00  0.64194170329E+00  0.10000000000E-01 0. -1.
</event>
<event>
 7   0  0.6206631E-02  0.9118800E+02  0.7818608E-02  0.1180000E+00
       11   -1    0    0    0    0  0.00000000000E+00  0.00000000000E+00  0.11999999989E+02  0.12000000000E+02  0.51109989000E-03 0. -1.
     -623   -1    0    0    0    0  0.00000000000E+00  0.00000000000E+00  0.42561509872E-11  0.25126700000E+02  0.25126700000E+02 0. -1.
      622    2    1    2    0    0  0.12671619755E-01  0.83929622706E-02  0.11939326294E+02  0.11939494521E+02  0.61530775161E-01 0.  0.
       11    1    1    2    0    0 -0.10368669716E-01 -0.10530875410E-01  0.58670347595E-01  0.60505202740E-01  0.51109989000E-03 0. -1.
     -623    1    1    2    0    0 -0.23029500387E-02  0.21379131391E-02  0.20033470171E-02  0.25126700276E+02  0.25126700000E+02 0. -1.
     -611    1    3    3    0    0 -0.13415954308E-01  0.14568982104E-01  0.19330789191E+01  0.19332062359E+01  0.10000000000E-01 0.  1.
      611    1    3    3    0    0  0.26087574063E-01 -0.61760198335E-02  0.10006247375E+02  0.10006288285E+02  0.10000000000E-01 0. -1.
</event>
<event>
 7   0  0.6206631E-02  0.9118800E+02  0.7818608E-02  0.1180000E+00
       11   -1    0    0    0    0  0.00000000000E+00  0.00000000000E+00  0.11999999989E+02  0.12000000000E+02  0.51109989000E-03 0. -1.
     -623   -1    0    0    0    0  0.00000000000E+00  0.00000000000E+00  0.42561509872E-11  0.25126700000E+02  0.25126700000E+02 0.  1.
      622    2    1    2    0    0 -0.24952347456E-02  0.23462285637E-02  0.11996823603E+02  0.11997296936E+02  0.10651514916E+00 0.  0.
       11    1    1    2    0    0  0.13997602681E-02  0.21312222391E-02  0.73550439314E-03  0.27025223180E-02  0.51109989000E-03 0. -1.
     -623    1    1    2    0    0  0.10954744775E-02 -0.44774508028E-02  0.24408813671E-02  0.25126700541E+02  0.25126700000E+02 0.  1.
     -611    1    3    3    0    0  0.22872381152E-01  0.45237568982E-01  0.44007251390E+01  0.44010284403E+01  0.10000000000E-01 0.  1.
      611    1    3    3    0    0 -0.25367615898E-01 -0.42891340418E-01  0.75960984643E+01  0.75962684960E+01  0.10000000000E-01 0. -1.
</event>
<event>
 7   0  0.6206631E-02  0.9118800E+02  0.7818608E-02  0.1180000E+00
       11   -1    0    0    0    0  0.00000000000E+00  0.00000000000E+00  0.11999999989E+02  0.12000000000E+02  0.51109989000E-03 0. -1.
     -623   -1    0    0    0    0  0.00000000000E+00  0.00000000000E+00  0.42561509872E-11  0.25126700000E+02  0.25126700000E+02 0.  1.
      622    2    1    2    0    0  0.68538580097E-01 -0.70224779563E-02  0.75062290424E+01  0.75072280836E+01  0.10125320021E+00 0.  0.
       11    1    1    2    0    0 -0.82370676200E-01  0.10891585051E+00  0.44904854031E+01  0.44925612970E+01  0.51109989000E-03 0. -1.
     -623    1    1    2    0    0  0.13832096103E-01 -0.10189337255E+00  0.32855435858E-02  0.25126910619E+02  0.25126700000E+02 0.  1.
     -611    1    3    3    0    0  0.67411807012E-01 -0.10539013212E-01  0.74228558488E+01  0.74231761649E+01  0.10000000000E-01 0. -1.
      611    1    3    3    0    0  0.11267730848E-02  0.35165352553E-02  0.83373193601E-01  0.84051918770E-01  0.10000000000E-01 0. -1.
</event>
<event>
 7   0  0.6206631E-02  0.9118800E+02  0.7818608E-02  0.1180000E+00
       11   -1    0    0    0    0  0.00000000000E+00  0.00000000000E+00  0.11999999989E+02  0.12000000000E+02  0.51109989000E-03 0. -1.
     -623   -1    0    0    0    0  0.00000000000E+00  0.00000000000E+00  0.42561509872E-11  0.25126700000E+02  0.25126700000E+02 0. -1.
      622    2    1    2    0    0  0.10290414054E-01 -0.15467022309E-01  0.11140653157E+02  0.11141417350E+02  0.12916142480E+00 0.  0.
       11    1    1    2    0    0 -0.37277393737E-01 -0.28243183086E-01  0.85725510038E+00  0.85853005179E+00  0.51109989000E-03 0. -1.
     -623    1    1    2    0    0  0.26986979683E-01  0.43710205394E-01  0.20917316689E-02  0.25126752598E+02  0.25126700000E+02 0. -1.
     -611    1    3    3    0    0  0.43606213013E-01  0.22836837776E-01  0.20441396648E+01  0.20447567074E+01  0.10000000000E-01 0.  1.
      611    1    3    3    0    0 -0.33315798960E-01 -0.38303860084E-01  0.90965134922E+01  0.90966606424E+01  0.10000000000E-01 0. -1.
</event>
<event>
 7   0  0.6206631E-02  0.9118800E+02  0.7818608E-02  0.1180000E+00
       11   -1    0    0    0    0  0.00000000000E+00  0.00000000000E+00  0.11999999989E+02  0.12000000000E+02  0.51109989000E-03 0. -1.
     -623   -1    0    0    0    0  0.00000000000E+00  0.00000000000E+00  0.42561509872E-11  0.25126700000E+02  0.25126700000E+02 0. -1.
      622    2    1    2    0    0  0.52829185485E-02  0.46180408188E-03  0.11508949204E+02  0.11509490372E+02  0.11148423920E+00 0.  0.
       11    1    1    2    0    0 -0.55100227535E-02  0.61504657052E-03  0.49047799630E+00  0.49050959696E+00  0.51109989000E-03 0. -1.
     -623    1    1    2    0    0  0.22710420501E-03 -0.10768506524E-02  0.57278907007E-03  0.25126700031E+02  0.25126700000E+02 0. -1.
     -611    1    3    3    0    0 -0.27838290897E-01 -0.44118858208E-01  0.44861648737E+01  0.44864793233E+01  0.10000000000E-01 0. -1.
      611    1    3    3    0    0  0.33121209446E-01  0.44580662290E-01  0.70227843300E+01  0.70230110491E+01  0.10000000000E-01 0.  1.
</event>
<event>
 7   0  0.6206631E-02  0.9118800E+02  0.7818608E-02  0.1180000E+00
       11   -1    0    0    0    0  0.00000000000E+00  0.00000000000E+00  0.11999999989E+02  0.12000000000E+02  0.51109989000E-03 0. -1.
     -623   -1    0    0    0    0  0.00000000000E+00  0.00000000000E+00  0.42561509872E-11  0.25126700000E+02  0.25126700000E+02 0. -1.
      622    2    1    2    0    0  0.72011825094E-02  0.49825095051E-02  0.11723119406E+02  0.11723608399E+02  0.10671740471E+00 0.  0.
       11    1    1    2    0    0  0.24680027380E-02 -0.21952885612E-03  0.27637770512E+00  0.27638928405E+00  0.51109989000E-03 0. -1.
     -623    1    1    2    0    0 -0.96691852474E-02 -0.47629806490E-02  0.50287800229E-03  0.25126702317E+02  0.25126700000E+02 0. -1.
     -611    1    3    3    0    0 -0.19811320398E-01 -0.30385995458E-01  0.91985359119E+01  0.91986128693E+01  0.10000000000E-01 0. -1.
      611    1    3    3    0    0  0.27012502908E-01  0.35368504963E-01  0.25245834941E+01  0.25249955297E+01  0.10000000000E-01 0.  1.
</event>
<event>
 7   0  0.6206631E-02  0.9118800E+02  0.7818608E-02  0.1180000E+00
       11   -1    0    0    0    0  0.00000000000E+00  0.00000000000E+00  0.11999999989E+02  0.12000000000E+02  0.51109989000E-03 0.  1.
     -623   -1    0    0    0    0  0.00000000000E+00  0.00000000000E+00  0.42561509872E-11  0.25126700000E+02  0.25126700000E+02 0.  1.
      622    2    1    2    0    0  0.12320377731E-01 -0.30713682753E-01  0.11056106469E+02  0.11057081152E+02  0.14303226017E+00 0.  0.
       11    1    1    2    0    0  0.18641873079E-01 -0.12445254211E-01  0.94259607149E+00  0.94286267239E+00  0.51109989000E-03 0.  1.
     -623    1    1    2    0    0 -0.30962250810E-01  0.43158936965E-01  0.12974490897E-02  0.25126756176E+02  0.25126700000E+02 0.  1.
     -611    1    3    3    0    0 -0.56676088325E-01 -0.31296002899E-02  0.72936052306E+01  0.72938329589E+01  0.10000000000E-01 0.  1.
      611    1    3    3    0    0  0.68996466056E-01 -0.27584082463E-01  0.37625012380E+01  0.37632481927E+01  0.10000000000E-01 0. -1.
</event>
<event>
 7   0  0.6206631E-02  0.9118800E+02  0.7818608E-02  0.1180000E+00
       11   -1    0    0    0    0  0.00000000000E+00  0.00000000000E+00  0.11999999989E+02  0.12000000000E+02  0.51109989000E-03 0.  1.
     -623   -1    0    0    0    0  0.00000000000E+00  0.00000000000E+00  0.42561509872E-11  0.25126700000E+02  0.25126700000E+02 0.  1.
      622    2    1    2    0    0  0.73838848887E-02 -0.65658020585E-03  0.11965737237E+02  0.11967209496E+02  0.18756480894E+00 0.  0.
       11    1    1    2    0    0 -0.55513346460E-02  0.22225194414E-02  0.32236409114E-01  0.32790306566E-01  0.51109989000E-03 0.  1.
     -623    1    1    2    0    0 -0.18325502427E-02 -0.15659392355E-02  0.20263434938E-02  0.25126700197E+02  0.25126700000E+02 0.  1.
     -611    1    3    3    0    0  0.12501659330E-01 -0.55732996956E-01  0.12685959794E+01  0.12699205556E+01  0.10000000000E-01 0. -1.
      611    1    3    3    0    0 -0.51177744414E-02  0.55076416750E-01  0.10697141257E+02  0.10697288941E+02  0.10000000000E-01 0.  1.
</event>
<event>
 7   0  0.6206631E-02  0.9118800E+02  0.7818608E-02  0.1180000E+00
       11   -1    0    0    0    0  0.00000000000E+00  0.00000000000E+00  0.11999999989E+02  0.12000000000E+02  0.51109989000E-03 0. -1.
     -623   -1    0    0    0    0  0.00000000000E+00  0.00000000000E+00  0.42561509872E-11  0.25126700000E+02  0.25126700000E+02 0.  1.
      622    2    1    2    0    0 -0.82324987995E-02  0.16600987474E-01  0.11218788415E+02  0.11219275298E+02  0.10286568433E+00 0.  0.
       11    1    1    2    0    0 -0.43129623255E-02 -0.11797588874E-01  0.78061987928E+00  0.78072110379E+00  0.51109989000E-03 0. -1.
     -623    1    1    2    0    0  0.12545461125E-01 -0.48033985997E-02  0.59169479914E-03  0.25126703598E+02  0.25126700000E+02 0.  1.
     -611    1    3    3    0    0  0.24529818187E-02  0.58647153574E-01  0.58936658822E+01  0.58939666641E+01  0.10000000000E-01 0. -1.
      611    1    3    3    0    0 -0.10685480618E-01 -0.42046166100E-01  0.53251225328E+01  0.53253086341E+01  0.10000000000E-01 0.  1.
</event>
<event>
 7   0  0.6206631E-02  0.9118800E+02  0.7818608E-02  0.1180000E+00
       11   -1    0    0    0    0  0.00000000000E+00  0.00000000000E+00  0.11999999989E+02  0.12000000000E+02  0.51109989000E-03 0.  1.
     -623   -1    0    0    0    0  0.00000000000E+00  0.00000000000E+00  0.42561509872E-11  0.25126700000E+02  0.25126700000E+02 0.  1.
      622    2    1    2    0    0 -0.27671697616E-02  0.13767985539E-01  0.11885656766E+02  0.11886565347E+02  0.14629346756E+00 0.  0.
       11    1    1    2    0    0 -0.36702127625E-02 -0.49573872937E-02  0.11326327869E+00  0.11343226029E+00  0.51109989000E-03 0.  1.
     -623    1    1    2    0    0  0.64373825241E-02 -0.88105982454E-02  0.10799444121E-02  0.25126702393E+02  0.25126700000E+02 0.  1.
     -611    1    3    3    0    0  0.60177366603E-01 -0.20978856942E-01  0.77756677319E+01  0.77759353202E+01  0.10000000000E-01 0. -1.
      611    1    3    3    0    0 -0.62944536365E-01  0.34746842481E-01  0.41099890342E+01  0.41106300270E+01  0.10000000000E-01 0.  1.
</event>
<event>
 7   0  0.6206631E-02  0.9118800E+02  0.7818608E-02  0.1180000E+00
       11   -1    0    0    0    0  0.00000000000E+00  0.00000000000E+00  0.11999999989E+02  0.12000000000E+02  0.51109989000E-03 0. -1.
     -623   -1    0    0    0    0  0.00000000000E+00  0.00000000000E+00  0.42561509872E-11  0.25126700000E+02  0.25126700000E+02 0.  1.
      622    2    1    2    0    0  0.14883980875E-03 -0.70566080703E-02  0.10566176131E+02  0.10566622697E+02  0.96888427621E-01 0.  0.
       11    1    1    2    0    0 -0.54107128344E-02 -0.10449500394E-01  0.14333222552E+01  0.14333706486E+01  0.51109989000E-03 0. -1.
     -623    1    1    2    0    0  0.52618730256E-02  0.17506108464E-01  0.50160268025E-03  0.25126706654E+02  0.25126700000E+02 0.  1.
     -611    1    3    3    0    0  0.20122604197E-01  0.36405921598E-01  0.32224097592E+01  0.32226937438E+01  0.10000000000E-01 0.  1.
      611    1    3    3    0    0 -0.19973764388E-01 -0.43462529668E-01  0.73437663720E+01  0.73439289532E+01  0.10000000000E-01 0. -1.
</event>
<event>
 7   0  0.6206631E-02  0.9118800E+02  0.7818608E-02  0.1180000E+00
       11   -1    0    0    0    0  0.00000000000E+00  0.00000000000E+00  0.11999999989E+02  0.12000000000E+02  0.51109989000E-03 0.  1.
     -623   -1    0    0    0    0  0.00000000000E+00  0.00000000000E+00  0.42561509872E-11  0.25126700000E+02  0.25126700000E+02 0. -1.
      622    2    1    2    0    0  0.40183334642E-02 -0.11280751469E-01  0.11762191674E+02  0.11762467181E+02  0.79610404738E-01 0.  0.
       11    1    1    2    0    0 -0.36808322329E-02  0.11511513791E-01  0.23722459913E+00  0.23753280854E+00  0.51109989000E-03 0.  1.
     -623    1    1    2    0    0 -0.33750123123E-03 -0.23076232296E-03  0.58371608817E-03  0.25126700010E+02  0.25126700000E+02 0. -1.
     -611    1    3    3    0    0  0.11671570207E-01 -0.95151474619E-02  0.11452859292E+02  0.11452873557E+02  0.10000000000E-01 0.  1.
      611    1    3    3    0    0 -0.76532367426E-02 -0.17656040067E-02  0.30933238225E+00  0.30959362412E+00  0.10000000000E-01 0. -1.
</event>
<event>
 7   0  0.6206631E-02  0.9118800E+02  0.7818608E-02  0.1180000E+00
       11   -1    0    0    0    0  0.00000000000E+00  0.00000000000E+00  0.11999999989E+02  0.12000000000E+02  0.51109989000E-03 0. -1.
     -623   -1    0    0    0    0  0.00000000000E+00  0.00000000000E+00  0.42561509872E-11  0.25126700000E+02  0.25126700000E+02 0. -1.
      622    2    1    2    0    0 -0.74963870501E-01 -0.49873357181E-01  0.86625629567E+01  0.86638077966E+01  0.11602423736E+00 0.  0.
       11    1    1    2    0    0  0.95189148580E-01  0.17576371351E-01  0.33347585359E+01  0.33361631640E+01  0.51109989000E-03 0. -1.
     -623    1    1    2    0    0 -0.20225278079E-01  0.32296985830E-01  0.26784965398E-02  0.25126729039E+02  0.25126700000E+02 0. -1.
     -611    1    3    3    0    0  0.17214299351E-01  0.70876009879E-02  0.36620193915E+01  0.36620803637E+01  0.10000000000E-01 0. -1.
      611    1    3    3    0    0 -0.92178169852E-01 -0.56960958169E-01  0.50005435652E+01  0.50017274329E+01  0.10000000000E-01 0.  1.
</event>
<event>
 7   0  0.6206631E-02  0.9118800E+02  0.7818608E-02  0.1180000E+00
       11   -1    0    0    0    0  0.00000000000E+00  0.00000000000E+00  0.11999999989E+02  0.12000000000E+02  0.51109989000E-03 0.  1.
     -623   -1    0    0    0    0  0.00000000000E+00  0.00000000000E+00  0.42561509872E-11  0.25126700000E+02  0.25126700000E+02 0. -1.
      622    2    1    2    0    0 -0.34652810863E-01  0.28916968815E-01  0.55231040884E+01  0.55243161601E+01  0.10655166398E+00 0.  0.
       11    1    1    2    0    0 -0.35498071732E-01  0.15458285104E-01  0.64754309164E+01  0.64755466863E+01  0.51109989000E-03 0.  1.
     -623    1    1    2    0    0  0.70150882595E-01 -0.44375253919E-01  0.14649843288E-02  0.25126837154E+02  0.25126700000E+02 0. -1.
     -611    1    3    3    0    0 -0.36214610815E-02 -0.17489316496E-01  0.23020925881E+00  0.23111748964E+00  0.10000000000E-01 0. -1.
      611    1    3    3    0    0 -0.31031349781E-01  0.46406285311E-01  0.52928948296E+01  0.52931986704E+01  0.10000000000E-01 0.  1.
</event>
<event>
 7   0  0.6206631E-02  0.9118800E+02  0.7818608E-02  0.1180000E+00
       11   -1    0    0    0    0  0.00000000000E+00  0.00000000000E+00  0.11999999989E+02  0.12000000000E+02  0.51109989000E-03 0. -1.
     -623   -1    0    0    0    0  0.00000000000E+00  0.00000000000E+00  0.42561509872E-11  0.25126700000E+02  0.25126700000E+02 0. -1.
      622    2    1    2    0    0 -0.35093451641E-01 -0.62988502539E-01  0.74866606582E+01  0.74877948332E+01  0.10855667211E+00 0.  0.
       11    1    1    2    0    0  0.52845735998E-01 -0.34139694746E-02  0.45118003125E+01  0.45121111077E+01  0.51109989000E-03 0. -1.
     -623    1    1    2    0    0 -0.17752284357E-01  0.66402472014E-01  0.15390184329E-02  0.25126794059E+02  0.25126700000E+02 0. -1.
     -611    1    3    3    0    0 -0.28874099624E-01 -0.24813808378E-02  0.56802466545E+01  0.56803293854E+01  0.10000000000E-01 0. -1.
      611    1    3    3    0    0 -0.62193520174E-02 -0.60507121702E-01  0.18064140037E+01  0.18074654478E+01  0.10000000000E-01 0.  1.
</event>
<event>
 7   0  0.6206631E-02  0.9118800E+02  0.7818608E-02  0.1180000E+00
       11   -1    0    0    0    0  0.00000000000E+00  0.00000000000E+00  0.11999999989E+02  0.12000000000E+02  0.51109989000E-03 0.  1.
     -623   -1    0    0    0    0  0.00000000000E+00  0.00000000000E+00  0.42561509872E-11  0.25126700000E+02  0.25126700000E+02 0.  1.
      622    2    1    2    0    0  0.93215275810E-03 -0.18465300377E-04  0.11998727866E+02  0.11999364766E+02  0.12362655268E+00 0.  0.
       11    1    1    2    0    0  0.19805070044E-03 -0.46387557276E-04  0.31759668865E-03  0.63519026540E-03  0.51109989000E-03 0.  1.
     -623    1    1    2    0    0 -0.11302034585E-02  0.64852857653E-04  0.95452668682E-03  0.25126700044E+02  0.25126700000E+02 0.  1.
     -611    1    3    3    0    0 -0.21456006519E-01  0.42744839170E-01  0.23350249072E+01  0.23355360838E+01  0.10000000000E-01 0. -1.
      611    1    3    3    0    0  0.22388159277E-01 -0.42763304470E-01  0.96637029586E+01  0.96638286823E+01  0.10000000000E-01 0.  1.
</event>
<event>
 7   0  0.6206631E-02  0.9118800E+02  0.7818608E-02  0.1180000E+00
       11   -1    0    0    0    0  0.00000000000E+00  0.00000000000E+00  0.11999999989E+02  0.12000000000E+02  0.51109989000E-03 0. -1.
     -623   -1    0    0    0    0  0.00000000000E+00  0.00000000000E+00  0.42561509872E-11  0.25126700000E+02  0.25126700000E+02 0. -1.
      622    2    1    2    0    0  0.72199841385E-02  0.25702802208E-01  0.11302120480E+02  0.11302690486E+02  0.11032731954E+00 0.  0.
       11    1    1    2    0    0 -0.56583244129E-02  0.13522993344E-01  0.69712454149E+00  0.69727883631E+00  0.51109989000E-03 0. -1.
     -623    1    1    2    0    0 -0.15616597256E-02 -0.39225795552E-01  0.75496795172E-03  0.25126730678E+02  0.25126700000E+02 0. -1.
     -611    1    3    3    0    0 -0.28860169786E-01 -0.28311711827E-01  0.27251856895E+01  0.27255038992E+01  0.10000000000E-01 0.  1.
      611    1    3    3    0    0  0.36080153925E-01  0.54014514035E-01  0.85769347902E+01  0.85771865865E+01  0.10000000000E-01 0. -1.
</event>
<event>
 7   0  0.6206631E-02  0.9118800E+02  0.7818608E-02  0.1180000E+00
       11   -1    0    0    0    0  0.00000000000E+00  0.00000000000E+00  0.11999999989E+02  0.12000000000E+02  0.51109989000E-03 0.  1.
     -623   -1    0    0    0    0  0.00000000000E+00  0.00000000000E+00  0.42561509872E-11  0.25126700000E+02  0.25126700000E+02 0.  1.
      622    2    1    2    0    0 -0.11405564058E-01 -0.98930270520E-01  0.69169323712E+01  0.69188786530E+01  0.13042661220E+00 0.  0.
       11    1    1    2    0    0  0.15478797603E-01  0.10760309673E+00  0.50799562340E+01  0.50811193275E+01  0.51109989000E-03 0.  1.
     -623    1    1    2    0    0 -0.40732335448E-02 -0.86728262144E-02  0.31113839203E-02  0.25126702020E+02  0.25126700000E+02 0.  1.
     -611    1    3    3    0    0  0.25231316543E-01  0.16013425080E-01  0.27714586388E+01  0.27716377894E+01  0.10000000000E-01 0.  1.
      611    1    3    3    0    0 -0.36636880601E-01 -0.11494369560E+00  0.41454737324E+01  0.41472408636E+01  0.10000000000E-01 0. -1.
</event>
<event>
 7   0  0.6206631E-02  0.9118800E+02  0.7818608E-02  0.1180000E+00
       11   -1    0    0    0    0  0.00000000000E+00  0.00000000000E+00  0.11999999989E+02  0.12000000000E+02  0.51109989000E-03 0.  1.
     -623   -1    0    0    0    0  0.00000000000E+00  0.00000000000E+00  0.42561509872E-11  0.25126700000E+02  0.25126700000E+02 0. -1.
      622    2    1    2    0    0  0.95013079612E-02  0.15641105156E-01  0.45504161855E+01  0.45514685766E+01  0.96144806240E-01 0.  0.
       11    1    1    2    0    0 -0.18004754233E-01 -0.21920667231E-01  0.74484751412E+01  0.74485291754E+01  0.51109989000E-03 0.  1.
     -623    1    1    2    0    0  0.85034462722E-02  0.62795620750E-02  0.11086624923E-02  0.25126702248E+02  0.25126700000E+02 0. -1.
     -611    1    3    3    0    0  0.98860326102E-02  0.17355611652E-01  0.23925967259E+00  0.24030010783E+00  0.10000000000E-01 0.  1.
      611    1    3    3    0    0 -0.38472464901E-03 -0.17145064953E-02  0.43111565129E+01  0.43111684688E+01  0.10000000000E-01 0.  1.
</event>
<event>
 7   0  0.6206631E-02  0.9118800E+02  0.7818608E-02  0.1180000E+00
       11   -1    0    0    0    0  0.00000000000E+00  0.00000000000E+00  0.11999999989E+02  0.12000000000E+02  0.51109989000E-03 0.  1.
     -623   -1    0    0    0    0  0.00000000000E+00  0.00000000000E+00  0.42561509872E-11  0.25126700000E+02  0.25126700000E+02 0. -1.
      622    2    1    2    0    0  0.22190170430E-01 -0.13009020507E-01  0.11956893750E+02  0.11957636991E+02  0.13081523871E+00 0.  0.
       11    1    1    2    0    0 -0.22435351376E-01 -0.13577775921E-01  0.33246154572E-01  0.42347007064E-01  0.51109989000E-03 0.  1.
     -623    1    1    2    0    0  0.24518094587E-03  0.26586796428E-01  0.98600845106E-02  0.25126716002E+02  0.25126700000E+02 0. -1.
     -611    1    3    3    0    0  0.64943924511E-01  0.81535929880E-02  0.36519076898E+01  0.36525079014E+01  0.10000000000E-01 0. -1.
      611    1    3    3    0    0 -0.42753754081E-01 -0.21162613495E-01  0.83049860602E+01  0.83051290899E+01  0.10000000000E-01 0.  1.
</event>
<event>
 7   0  0.6206631E-02  0.9118800E+02  0.7818608E-02  0.1180000E+00
       11   -1    0    0    0    0  0.00000000000E+00  0.00000000000E+00  0.11999999989E+02  0.12000000000E+02  0.51109989000E-03 0.  1.
     -623   -1    0    0    0    0  0.00000000000E+00  0.00000000000E+00  0.42561509872E-11  0.25126700000E+02  0.25126700000E+02 0.  1.
      622    2    1    2    0    0 -0.13669451538E-02 -0.31661839378E-02  0.11972673591E+02  0.11973327351E+02  0.12507216725E+00 0.  0.
       11    1    1    2    0    0  0.74715666845E-03  0.15190116562E-02  0.26613897423E-01  0.26672577654E-01  0.51109989000E-03 0.  1.
     -623    1    1    2    0    0  0.61978848533E-03  0.16471722816E-02  0.71250119992E-03  0.25126700072E+02  0.25126700000E+02 0.  1.
     -611    1    3    3    0    0 -0.20755239349E-01  0.55888040600E-01  0.48806875467E+01  0.48810618908E+01  0.10000000000E-01 0. -1.
      611    1    3    3    0    0  0.19388294195E-01 -0.59054224538E-01  0.70919860438E+01  0.70922654598E+01  0.10000000000E-01 0.  1.
</event>
<event>
 7   0  0.6206631E-02  0.9118800E+02  0.7818608E-02  0.1180000E+00
       11   -1    0    0    0    0  0.00000000000E+00  0.00000000000E+00  0.11999999989E+02  0.12000000000E+02  0.51109989000E-03 0.  1.
     -623   -1    0    0    0    0  0.00000000000E+00  0.00000000000E+00  0.42561509872E-11  0.25126700000E+02  0.25126700000E+02 0. -1.
      622    2    1    2    0    0  0.16675792082E-01 -0.20924637231E-01  0.11834121435E+02  0.11834588681E+02  0.10170148644E+00 0.  0.
       11    1    1    2    0    0 -0.19013938577E-01  0.15104455704E-01  0.16361746916E+00  0.16541043462E+00  0.51109989000E-03 0.  1.
     -623    1    1    2    0    0  0.23381464951E-02  0.58201815269E-02  0.22610853703E-02  0.25126700885E+02  0.25126700000E+02 0. -1.
     -611    1    3    3    0    0 -0.32451495775E-01  0.19341192272E-01  0.34692487033E+01  0.34694687989E+01  0.10000000000E-01 0. -1.
      611    1    3    3    0    0  0.49127287857E-01 -0.40265829503E-01  0.83648727313E+01  0.83651198819E+01  0.10000000000E-01 0.  1.
</event>
<event>
 7   0  0.6206631E-02  0.9118800E+02  0.7818608E-02  0.1180000E+00
       11   -1    0    0    0    0  0.00000000000E+00  0.00000000000E+00  0.11999999989E+02  0.12000000000E+02  0.51109989000E-03 0.  1.
     -623   -1    0    0    0    0  0.00000000000E+00  0.00000000000E+00  0.42561509872E-11  0.25126700000E+02  0.25126700000E+02 0.  1.
      622    2    1    2    0    0  0.00000000000E+00  0.00000000000E+00  0.11125471888E+02  0.11125774568E+02  0.82067069144E-01 0.  0.
       11    1    1    2    0    0 -0.94483856156E-02 -0.26618835972E-02  0.87430228141E+00  0.87435753449E+00  0.51109989000E-03 0.  1.
     -623    1    1    2    0    0  0.94483856156E-02  0.26618835972E-02  0.35983840908E-03  0.25126701920E+02  0.25126700000E+02 0.  1.
     -611    1    3    3    0    0 -0.14379322377E-01 -0.18349506930E-01  0.99353062344E+01  0.99353386173E+01  0.10000000000E-01 0.  1.
      611    1    3    3    0    0  0.14379322377E-01  0.18349506930E-01  0.11901656537E+01  0.11904359507E+01  0.10000000000E-01 0. -1.
</event>
<event>
 7   0  0.6206631E-02  0.9118800E+02  0.7818608E-02  0.1180000E+00
       11   -1    0    0    0    0  0.00000000000E+00  0.00000000000E+00  0.11999999989E+02  0.12000000000E+02  0.51109989000E-03 0.  1.
     -623   -1    0    0    0    0  0.00000000000E+00  0.00000000000E+00  0.42561509872E-11  0.25126700000E+02  0.25126700000E+02 0. -1.
      622    2    1    2    0    0  0.34280984925E-02  0.92748789635E-02  0.66626925171E+01  0.66634668606E+01  0.10110019333E+00 0.  0.
       11    1    1    2    0    0 -0.84002279535E-01 -0.34118350850E-01  0.53356213072E+01  0.53363916123E+01  0.51109989000E-03 0.  1.
     -623    1    1    2    0    0  0.80574181042E-01  0.24843471886E-01  0.16861648226E-02  0.25126841527E+02  0.25126700000E+02 0. -1.
     -611    1    3    3    0    0 -0.89618308439E-02 -0.43121509350E-01  0.36182682267E+01  0.36185500880E+01  0.10000000000E-01 0.  1.
      611    1    3    3    0    0  0.12389929336E-01  0.52396388313E-01  0.30444242904E+01  0.30449167726E+01  0.10000000000E-01 0. -1.
</event>
<event>
 7   0  0.6206631E-02  0.9118800E+02  0.7818608E-02  0.1180000E+00
       11   -1    0    0    0    0  0.00000000000E+00  0.00000000000E+00  0.11999999989E+02  0.12000000000E+02  0.51109989000E-03 0.  1.
     -623   -1    0    0    0    0  0.00000000000E+00  0.00000000000E+00  0.42561509872E-11  0.25126700000E+02  0.25126700000E+02 0. -1.
      622    2    1    2    0    0  0.16931456028E+00  0.18242987669E+00  0.10079423414E+02  0.10082973081E+02  0.98090321918E-01 0.  0.
       11    1    1    2    0    0 -0.21523464330E+00 -0.13970715641E+00  0.18996879984E+01  0.19169399557E+01  0.51109989000E-03 0.  1.
     -623    1    1    2    0    0  0.45920083020E-01 -0.42722720284E-01  0.20888576779E-01  0.25126786963E+02  0.25126700000E+02 0. -1.
     -611    1    3    3    0    0  0.11281017193E-01 -0.10171833080E-01  0.68187077987E+00  0.68211325158E+00  0.10000000000E-01 0.  1.
      611    1    3    3    0    0  0.15803354309E+00  0.19260170977E+00  0.93975526341E+01  0.94008598293E+01  0.10000000000E-01 0.  1.
</event>
<event>
 7   0  0.6206631E-02  0.9118800E+02  0.7818608E-02  0.1180000E+00
       11   -1    0    0    0    0  0.00000000000E+00  0.00000000000E+00  0.11999999989E+02  0.12000000000E+02  0.51109989000E-03 0. -1.
     -623   -1    0    0    0    0  0.00000000000E+00  0.00000000000E+00  0.42561509872E-11  0.25126700000E+02  0.25126700000E+02 0. -1.
      622    2    1    2    0    0 -0.29818230145E-02 -0.35612222755E-01  0.86652688768E+01  0.86658730668E+01  0.95886299447E-01 0.  0.
       11    1    1    2    0    0 -0.36126606733E-01 -0.28156729787E-02  0.33338701376E+01  0.33340670982E+01  0.51109989000E-03 0. -1.
     -623    1    1    2    0    0  0.39108429747E-01  0.38427895734E-01  0.86097476780E-03  0.25126759835E+02  0.25126700000E+02 0. -1.
     -611    1    3    3    0    0 -0.51065668066E-02 -0.67401610596E-01  0.62457374374E+01  0.62461112055E+01  0.10000000000E-01 0. -1.
      611    1    3    3    0    0  0.21247437921E-02  0.31789387840E-01  0.24195314394E+01  0.24197618614E+01  0.10000000000E-01 0.  1.
</event>
<event>
 7   0  0.6206631E-02  0.9118800E+02  0.7818608E-02  0.1180000E+00
       11   -1    0    0    0    0  0.00000000000E+00  0.00000000000E+00  0.11999999989E+02  0.12000000000E+02  0.51109989000E-03 0.  1.
     -623   -1    0    0    0    0  0.00000000000E+00  0.00000000000E+00  0.42561509872E-11  0.25126700000E+02  0.25126700000E+02 0. -1.
      622    2    1    2    0    0  0.15031372613E-01  0.94932036359E-02  0.11910541303E+02  0.11911679812E+02  0.16372463204E+00 0.  0.
       11    1    1    2    0    0 -0.36710060237E-02 -0.18346886906E-01  0.86309592533E-01  0.88315862283E-01  0.51109989000E-03 0.  1.
     -623    1    1    2    0    0 -0.11360366589E-01  0.88536832702E-02  0.31490934099E-02  0.25126704325E+02  0.25126700000E+02 0. -1.
     -611    1    3    3    0    0  0.26611059947E-01  0.67062756479E-01  0.28110584119E+01  0.28120019483E+01  0.10000000000E-01 0. -1.
      611    1    3    3    0    0 -0.11579687334E-01 -0.57569552843E-01  0.90994828913E+01  0.90996778641E+01  0.10000000000E-01 0.  1.
</event>
<event>
 6   0  0.6206631E-02  0.9118800E+02  0.7818608E-02  0.1180000E+00
       11   -1    0    0    0    0  0.00000000000E+00  0.00000000000E+00  0.11999999989E+02  0.12000000000E+02  0.51109989000E-03 0. -1.
     -623   -1    0    0    0    0  0.00000000000E+00  0.00000000000E+00  0.42561509872E-11  0.25126700000E+02  0.25126700000E+02 0.  1.
       11    1    1    2    0    0  0.54647238452E-01 -0.70549839306E-01  0.84085749117E+00  0.84557979055E+00  0.51109989000E-03 0. -1.
     -623    1    1    2    0    0  0.76614550970E-02  0.48970351525E-02  0.70737141263E-02  0.25126702641E+02  0.25126700000E+02 0.  1.
     -611    1    1    2    0    0  0.27207845597E-01  0.87622319222E-01  0.22837263476E+01  0.22855905076E+01  0.10000000000E-01 0.  1.
      611    1    1    2    0    0 -0.89516539146E-01 -0.21969515068E-01  0.88683424362E+01  0.88688270609E+01  0.10000000000E-01 0. -1.
</event>
<event>
 7   0  0.6206631E-02  0.9118800E+02  0.7818608E-02  0.1180000E+00
       11   -1    0    0    0    0  0.00000000000E+00  0.00000000000E+00  0.11999999989E+02  0.12000000000E+02  0.51109989000E-03 0.  1.
     -623   -1    0    0    0    0  0.00000000000E+00  0.00000000000E+00  0.42561509872E-11  0.25126700000E+02  0.25126700000E+02 0. -1.
      622    2    1    2    0    0  0.27568311180E-02  0.15650077125E-01  0.11559909073E+02  0.11560249884E+02  0.87333145922E-01 0.  0.
       11    1    1    2    0    0 -0.34818028213E-02 -0.14432030018E-01  0.43949909588E+00  0.43975006872E+00  0.51109989000E-03 0.  1.
     -623    1    1    2    0    0  0.72497170323E-03 -0.12180471071E-02  0.59181986970E-03  0.25126700047E+02  0.25126700000E+02 0. -1.
     -611    1    3    3    0    0 -0.23309061827E-01  0.24378146831E-01  0.20930826327E+01  0.20933782539E+01  0.10000000000E-01 0. -1.
      611    1    3    3    0    0  0.26065892945E-01 -0.87280697063E-02  0.94668264406E+01  0.94668716304E+01  0.10000000000E-01 0.  1.
</event>
<event>
 7   0  0.6206631E-02  0.9118800E+02  0.7818608E-02  0.1180000E+00
       11   -1    0    0    0    0  0.00000000000E+00  0.00000000000E+00  0.11999999989E+02  0.12000000000E+02  0.51109989000E-03 0. -1.
     -623   -1    0    0    0    0  0.00000000000E+00  0.00000000000E+00  0.42561509872E-11  0.25126700000E+02  0.25126700000E+02 0. -1.
      622    2    1    2    0    0  0.11873892032E-02  0.66141398286E-02  0.11988827849E+02  0.11989220852E+02  0.96841458074E-01 0.  0.
       11    1    1    2    0    0  0.66400429935E-02  0.43095454680E-02  0.72926365416E-02  0.10775255169E-01  0.51109989000E-03 0. -1.
     -623    1    1    2    0    0 -0.78274321967E-02 -0.10923685297E-01  0.38795030913E-02  0.25126703893E+02  0.25126700000E+02 0. -1.
     -611    1    3    3    0    0 -0.69819296303E-02  0.27594027601E-01  0.12474846802E+01  0.12478494321E+01  0.10000000000E-01 0.  1.
      611    1    3    3    0    0  0.81693188335E-02 -0.20979887773E-01  0.10741343169E+02  0.10741371420E+02  0.10000000000E-01 0. -1.
</event>
<event>
 7   0  0.6206631E-02  0.9118800E+02  0.7818608E-02  0.1180000E+00
       11   -1    0    0    0    0  0.00000000000E+00  0.00000000000E+00  0.11999999989E+02  0.12000000000E+02  0.51109989000E-03 0.  1.
     -623   -1    0    0    0    0  0.00000000000E+00  0.00000000000E+00  0.42561509872E-11  0.25126700000E+02  0.25126700000E+02 0.  1.
      622    2    1    2    0    0 -0.68050622228E-03  0.56870638718E-02  0.11702451485E+02  0.11702585436E+02  0.55698439721E-01 0.  0.
       11    1    1    2    0    0  0.10290871738E-03 -0.57295109134E-02  0.29735890646E+00  0.29741455640E+00  0.51109989000E-03 0.  1.
     -623    1    1    2    0    0  0.57759750491E-03  0.42447041572E-04  0.18959718985E-03  0.25126700007E+02  0.25126700000E+02 0.  1.
     -611    1    3    3    0    0 -0.18584139483E-01  0.96860394532E-03  0.20083161330E+01  0.20084272450E+01  0.10000000000E-01 0. -1.
      611    1    3    3    0    0  0.17903633261E-01  0.47184599265E-02  0.96941353523E+01  0.96941581910E+01  0.10000000000E-01 0.  1.
</event>
<event>
 7   0  0.6206631E-02  0.9118800E+02  0.7818608E-02  0.1180000E+00
       11   -1    0    0    0    0  0.00000000000E+00  0.00000000000E+00  0.11999999989E+02  0.12000000000E+02  0.51109989000E-03 0. -1.
     -623   -1    0    0    0    0  0.00000000000E+00  0.00000000000E+00  0.42561509872E-11  0.25126700000E+02  0.25126700000E+02 0. -1.
      622    2    1    2    0    0 -0.55491947380E-02 -0.13468468926E-01  0.11690731458E+02  0.11691241472E+02  0.10822638121E+00 0.  0.
       11    1    1    2    0    0  0.12128914245E-02  0.13855516688E-01  0.30844428939E+00  0.30875813727E+00  0.51109989000E-03 0. -1.
     -623    1    1    2    0    0  0.43363033135E-02 -0.38704776176E-03  0.82424206770E-03  0.25126700391E+02  0.25126700000E+02 0. -1.
     -611    1    3    3    0    0 -0.85684963358E-02 -0.42418634921E-02  0.19056296729E+00  0.19106453631E+00  0.10000000000E-01 0. -1.
      611    1    3    3    0    0  0.30193015978E-02 -0.92266054338E-02  0.11500168490E+02  0.11500176936E+02  0.10000000000E-01 0. -1.
</event>
<event>
 7   0  0.6206631E-02  0.9118800E+02  0.7818608E-02  0.1180000E+00
       11   -1    0    0    0    0  0.00000000000E+00  0.00000000000E+00  0.11999999989E+02  0.12000000000E+02  0.51109989000E-03 0. -1.
     -623   -1    0    0    0    0  0.00000000000E+00  0.00000000000E+00  0.42561509872E-11  0.25126700000E+02  0.25126700000E+02 0. -1.
      622    2    1    2    0    0 -0.36772622673E-01  0.23834808068E-02  0.11210206869E+02  0.11210790977E+02  0.10834378946E+00 0.  0.
       11    1    1    2    0    0  0.34222149304E-01 -0.88630985964E-02  0.78841570727E+00  0.78920801993E+00  0.51109989000E-03 0. -1.
     -623    1    1    2    0    0  0.25504733686E-02  0.64796177895E-02  0.13774124124E-02  0.25126701003E+02  0.25126700000E+02 0. -1.
     -611    1    3    3    0    0  0.31872781235E-01  0.23497410255E-01  0.48088647822E+01  0.48090382090E+01  0.10000000000E-01 0. -1.
      611    1    3    3    0    0 -0.68645403907E-01 -0.21113929448E-01  0.64013420873E+01  0.64017527684E+01  0.10000000000E-01 0.  1.
</event>
<event>
 7   0  0.6206631E-02  0.9118800E+02  0.7818608E-02  0.1180000E+00
       11   -1    0    0    0    0  0.00000000000E+00  0.00000000000E+00  0.11999999989E+02  0.12000000000E+02  0.51109989000E-03 0. -1.
     -623   -1    0    0    0    0  0.00000000000E+00  0.00000000000E+00  0.42561509872E-11  0.25126700000E+02  0.25126700000E+02 0.  1.
      622    2    1    2    0    0  0.47359153420E-01 -0.34450830849E-01  0.71422880697E+01  0.71450089741E+01  0.18826741447E+00 0.  0.
       11    1    1    2    0    0 -0.58970257257E-01  0.20823037808E-01  0.48545816178E+01  0.48549844526E+01  0.51109989000E-03 0. -1.
     -623    1    1    2    0    0  0.11611103837E-01  0.13627793041E-01  0.31303016360E-02  0.25126706573E+02  0.25126700000E+02 0.  1.
     -611    1    3    3    0    0  0.85127229591E-01 -0.19794019702E-01  0.67377917936E+01  0.67383660262E+01  0.10000000000E-01 0. -1.
      611    1    3    3    0    0 -0.37768076172E-01 -0.14656811147E-01  0.40449627609E+00  0.40664294788E+00  0.10000000000E-01 0.  1.
</event>
<event>
 7   0  0.6206631E-02  0.9118800E+02  0.7818608E-02  0.1180000E+00
       11   -1    0    0    0    0  0.00000000000E+00  0.00000000000E+00  0.11999999989E+02  0.12000000000E+02  0.51109989000E-03 0. -1.
     -623   -1    0    0    0    0  0.00000000000E+00  0.00000000000E+00  0.42561509872E-11  0.25126700000E+02  0.25126700000E+02 0.  1.
      622    2    1    2    0    0 -0.10470196695E-02 -0.97636365955E-02  0.11619255179E+02  0.11619638214E+02  0.93834293238E-01 0.  0.
       11    1    1    2    0    0  0.75304279892E-02  0.42106023932E-02  0.38026212549E+00  0.38036033156E+00  0.51109989000E-03 0. -1.
     -623    1    1    2    0    0 -0.64834083197E-02  0.55530342024E-02  0.48268445708E-03  0.25126701455E+02  0.25126700000E+02 0.  1.
     -611    1    3    3    0    0  0.28738955373E-01  0.30617800115E-01  0.52147622434E+01  0.52149409040E+01  0.10000000000E-01 0.  1.
      611    1    3    3    0    0 -0.29785975042E-01 -0.40381436711E-01  0.64044929358E+01  0.64046973097E+01  0.10000000000E-01 0. -1.
</event>
<event>
 7   0  0.6206631E-02  0.9118800E+02  0.7818608E-02  0.1180000E+00
       11   -1    0    0    0    0  0.00000000000E+00  0.00000000000E+00  0.11999999989E+02  0.12000000000E+02  0.51109989000E-03 0.  1.
     -623   -1    0    0    0    0  0.00000000000E+00  0.00000000000E+00  0.42561509872E-11  0.25126700000E+02  0.25126700000E+02 0.  1.
      622    2    1    2    0    0  0.13479764969E-01 -0.40214641258E-01  0.38723088001E+01  0.38734966584E+01  0.86034863434E-01 0.  0.
       11    1    1    2    0    0 -0.52584989919E-01 -0.85325552218E-01  0.81255410604E+01  0.81261592045E+01  0.51109989000E-03 0.  1.
     -623    1    1    2    0    0  0.39105224950E-01  0.12554019348E+00  0.21501286590E-02  0.25127044137E+02  0.25126700000E+02 0.  1.
     -611    1    3    3    0    0 -0.35510712063E-01 -0.14347451058E-01  0.15422904841E+01  0.15427983658E+01  0.10000000000E-01 0.  1.
      611    1    3    3    0    0  0.48990477032E-01 -0.25867190200E-01  0.23300183159E+01  0.23306982926E+01  0.10000000000E-01 0. -1.
</event>
<event>
 7   0  0.6206631E-02  0.9118800E+02  0.7818608E-02  0.1180000E+00
       11   -1    0    0    0    0  0.00000000000E+00  0.00000000000E+00  0.11999999989E+02  0.12000000000E+02  0.51109989000E-03 0. -1.
     -623   -1    0    0    0    0  0.00000000000E+00  0.00000000000E+00  0.42561509872E-11  0.25126700000E+02  0.25126700000E+02 0. -1.
      622    2    1    2    0    0  0.11776180594E-02  0.12121752845E-01  0.98824718926E+01  0.98826946908E+01  0.65232819212E-01 0.  0.
       11    1    1    2    0    0 -0.14412403377E-03 -0.12000638944E-01  0.21172712103E+01  0.21173052863E+01  0.51109989000E-03 0. -1.
     -623    1    1    2    0    0 -0.10334940256E-02 -0.12111390142E-03  0.25688619872E-03  0.25126700023E+02  0.25126700000E+02 0. -1.
     -611    1    3    3    0    0 -0.28129408688E-02 -0.93788692786E-02  0.51012444236E+00  0.51031639452E+00  0.10000000000E-01 0. -1.
      611    1    3    3    0    0  0.39905589282E-02  0.21500622124E-01  0.93723474502E+01  0.93723782963E+01  0.10000000000E-01 0. -1.
</event>
<event>
 7   0  0.6206631E-02  0.9118800E+02  0.7818608E-02  0.1180000E+00
       11   -1    0    0    0    0  0.00000000000E+00  0.00000000000E+00  0.11999999989E+02  0.12000000000E+02  0.51109989000E-03 0.  1.
     -623   -1    0    0    0    0  0.00000000000E+00  0.00000000000E+00  0.42561509872E-11  0.25126700000E+02  0.25126700000E+02 0. -1.
      622    2    1    2    0    0 -0.10576734181E-02 -0.17847453833E-04  0.11994013048E+02  0.11994378949E+02  0.93681661731E-01 0.  0.
       11    1    1    2    0    0  0.76939248306E-03 -0.17631966499E-02  0.52567401024E-02  0.56209756151E-02  0.51109989000E-03 0.  1.
     -623    1    1    2    0    0  0.28828093503E-03  0.17810441037E-02  0.73020085706E-03  0.25126700075E+02  0.25126700000E+02 0. -1.
     -611    1    3    3    0    0 -0.39176701708E-01  0.92578140159E-02  0.31480663326E+01  0.31483395871E+01  0.10000000000E-01 0. -1.
      611    1    3    3    0    0  0.38119028290E-01 -0.92756614698E-02  0.88459467156E+01  0.88460393619E+01  0.10000000000E-01 0.  1.
</event>
<event>
 7   0  0.6206631E-02  0.9118800E+02  0.7818608E-02  0.1180000E+00
       11   -1    0    0    0    0  0.00000000000E+00  0.00000000000E+00  0.11999999989E+02  0.12000000000E+02  0.51109989000E-03 0. -1.
     -623   -1    0    0    0    0  0.00000000000E+00  0.00000000000E+00  0.42561509872E-11  0.25126700000E+02  0.25126700000E+02 0.  1.
      622    2    1    2    0    0  0.90008373029E-02 -0.51264733407E-01  0.89354165223E+01  0.89361671119E+01  0.10346563160E+00 0.  0.
       11    1    1    2    0    0 -0.10948797829E-01  0.43811471107E-01  0.30634988173E+01  0.30638316837E+01  0.51109989000E-03 0. -1.
     -623    1    1    2    0    0  0.19479605259E-02  0.74532623000E-02  0.10846494553E-02  0.25126701204E+02  0.25126700000E+02 0.  1.
     -611    1    3    3    0    0  0.71399609852E-02  0.18576343541E-01  0.54645252720E+00  0.54690622968E+00  0.10000000000E-01 0.  1.
      611    1    3    3    0    0  0.18608763177E-02 -0.69841076948E-01  0.83889639951E+01  0.83892608823E+01  0.10000000000E-01 0. -1.
</event>
<event>
 7   0  0.6206631E-02  0.9118800E+02  0.7818608E-02  0.1180000E+00
       11   -1    0    0    0    0  0.00000000000E+00  0.00000000000E+00  0.11999999989E+02  0.12000000000E+02  0.51109989000E-03 0.  1.
     -623   -1    0    0    0    0  0.00000000000E+00  0.00000000000E+00  0.42561509872E-11  0.25126700000E+02  0.25126700000E+02 0. -1.
      622    2    1    2    0    0  0.54741633034E-03  0.44819266610E-02  0.11889967486E+02  0.11890119698E+02  0.59993494287E-01 0.  0.
       11    1    1    2    0    0 -0.13104648508E-03 -0.44073108478E-02  0.10979060511E+00  0.10988029739E+00  0.51109989000E-03 0.  1.
     -623    1    1    2    0    0 -0.41636984526E-03 -0.74615813193E-04  0.24189779630E-03  0.25126700005E+02  0.25126700000E+02 0. -1.
     -611    1    3    3    0    0  0.22522676576E-01 -0.98924275705E-02  0.33216907596E+01  0.33217968983E+01  0.10000000000E-01 0.  1.
      611    1    3    3    0    0 -0.21975260246E-01  0.14374354231E-01  0.85682767266E+01  0.85683227996E+01  0.10000000000E-01 0.  1.
</event>
<event>
 7   0  0.6206631E-02  0.9118800E+02  0.7818608E-02  0.1180000E+00
       11   -1    0    0    0    0  0.00000000000E+00  0.00000000000E+00  0.11999999989E+02  0.12000000000E+02  0.51109989000E-03 0.  1.
     -623   -1    0    0    0    0  0.00000000000E+00  0.00000000000E+00  0.42561509872E-11  0.25126700000E+02  0.25126700000E+02 0.  1.
      622    2    1    2    0    0 -0.59509608733E-03 -0.56268838837E-02  0.11810431756E+02  0.11811058275E+02  0.12152084777E+00 0.  0.
       11    1    1    2    0    0 -0.30225052427E-02 -0.47832159800E-02  0.18885386481E+00  0.18893929758E+00  0.51109989000E-03 0.  1.
     -623    1    1    2    0    0  0.36176013300E-02  0.10410099864E-01  0.71436879056E-03  0.25126702427E+02  0.25126700000E+02 0.  1.
     -611    1    3    3    0    0  0.16735178545E-01 -0.28689064985E-01  0.10995584989E+02  0.10995639699E+02  0.10000000000E-01 0.  1.
      611    1    3    3    0    0 -0.17330274633E-01  0.23062181102E-01  0.81484676604E+00  0.81541857640E+00  0.10000000000E-01 0. -1.
</event>
<event>
 7   0  0.6206631E-02  0.9118800E+02  0.7818608E-02  0.1180000E+00
       11   -1    0    0    0    0  0.00000000000E+00  0.00000000000E+00  0.11999999989E+02  0.12000000000E+02  0.51109989000E-03 0.  1.
     -623   -1    0    0    0    0  0.00000000000E+00  0.00000000000E+00  0.42561509872E-11  0.25126700000E+02  0.25126700000E+02 0.  1.
      622    2    1    2    0    0  0.20954581010E-01  0.74963980007E-02  0.11050323361E+02  0.11050668129E+02  0.84406319112E-01 0.  0.
       11    1    1    2    0    0 -0.32530564294E-01 -0.19370888184E-01  0.94857094351E+00  0.94932637434E+00  0.51109989000E-03 0.  1.
     -623    1    1    2    0    0  0.11575983284E-01  0.11874490183E-01  0.11056847945E-02  0.25126705497E+02  0.25126700000E+02 0.  1.
     -611    1    3    3    0    0 -0.29923358030E-01 -0.64395603342E-02  0.32317558251E+01  0.32319162409E+01  0.10000000000E-01 0.  1.
      611    1    3    3    0    0  0.50877939039E-01  0.13935958335E-01  0.78185675357E+01  0.78187518880E+01  0.10000000000E-01 0.  1.
</event>
<event>
 7   0  0.6206631E-02  0.9118800E+02  0.7818608E-02  0.1180000E+00
       11   -1    0    0    0    0  0.00000000000E+00  0.00000000000E+00  0.11999999989E+02  0.12000000000E+02  0.51109989000E-03 0.  1.
     -623   -1    0    0    0    0  0.00000000000E+00  0.00000000000E+00  0.42561509872E-11  0.25126700000E+02  0.25126700000E+02 0. -1.
      622    2    1    2    0    0  0.99124306378E-02  0.22688940343E-01  0.11592801526E+02  0.11593234254E+02  0.97057711247E-01 0.  0.
       11    1    1    2    0    0 -0.84869757040E-02 -0.31496077282E-01  0.40545374800E+00  0.40676410194E+00  0.51109989000E-03 0.  1.
     -623    1    1    2    0    0 -0.14254549338E-02  0.88071369389E-02  0.17447154213E-02  0.25126701644E+02  0.25126700000E+02 0. -1.
     -611    1    3    3    0    0 -0.23961018000E-01  0.24260801294E-01  0.17084865204E+01  0.17088560230E+01  0.10000000000E-01 0. -1.
      611    1    3    3    0    0  0.33873448638E-01 -0.15718609509E-02  0.98843150053E+01  0.98843782306E+01  0.10000000000E-01 0.  1.
</event>
<event>
 7   0  0.6206631E-02  0.9118800E+02  0.7818608E-02  0.1180000E+00
       11   -1    0    0    0    0  0.00000000000E+00  0.00000000000E+00  0.11999999989E+02  0.12000000000E+02  0.51109989000E-03 0. -1.
     -623   -1    0    0    0    0  0.00000000000E+00  0.00000000000E+00  0.42561509872E-11  0.25126700000E+02  0.25126700000E+02 0. -1.
      622    2    1    2    0    0  0.12348583136E-01 -0.90037746014E-02  0.11852223034E+02  0.11852370557E+02  0.57126311214E-01 0.  0.
       11    1    1    2    0    0 -0.12034023048E-01  0.15658822431E-01  0.14630072182E+00  0.14762851642E+00  0.51109989000E-03 0. -1.
     -623    1    1    2    0    0 -0.31456008793E-03 -0.66550478295E-02  0.14762332972E-02  0.25126700927E+02  0.25126700000E+02 0. -1.
     -611    1    3    3    0    0 -0.73113833101E-02  0.36750930798E-02  0.70447421936E+00  0.70459271099E+00  0.10000000000E-01 0. -1.
      611    1    3    3    0    0  0.19659966446E-01 -0.12678867681E-01  0.11147748815E+02  0.11147777846E+02  0.10000000000E-01 0. -1.
</event>
<event>
 7   0  0.6206631E-02  0.9118800E+02  0.7818608E-02  0.1180000E+00
       11   -1    0    0    0    0  0.00000000000E+00  0.00000000000E+00  0.11999999989E+02  0.12000000000E+02  0.51109989000E-03 0. -1.
     -623   -1    0    0    0    0  0.00000000000E+00  0.00000000000E+00  0.42561509872E-11  0.25126700000E+02  0.25126700000E+02 0.  1.
      622    2    1    2    0    0  0.25459356848E-03  0.17086304018E-02  0.11919401353E+02  0.11919803539E+02  0.97902022173E-01 0.  0.
       11    1    1    2    0    0 -0.12454031170E-02  0.39347898444E-03  0.80184085511E-01  0.80196350584E-01  0.51109989000E-03 0. -1.
     -623    1    1    2    0    0  0.99080954849E-03 -0.21021093862E-02  0.41455090005E-03  0.25126700111E+02  0.25126700000E+02 0.  1.
     -611    1    3    3    0    0  0.35565444736E-01 -0.28057821742E-01  0.76507491772E+01  0.76508898250E+01  0.10000000000E-01 0. -1.
      611    1    3    3    0    0 -0.35310851168E-01  0.29766452143E-01  0.42686521755E+01  0.42689137135E+01  0.10000000000E-01 0. -1.
</event>
<event>
 7   0  0.6206631E-02  0.9118800E+02  0.7818608E-02  0.1180000E+00
       11   -1    0    0    0    0  0.00000000000E+00  0.00000000000E+00  0.11999999989E+02  0.12000000000E+02  0.51109989000E-03 0.  1.
     -623   -1    0    0    0    0  0.00000000000E+00  0.00000000000E+00  0.42561509872E-11  0.25126700000E+02  0.25126700000E+02 0. -1.
      622    2    1    2    0    0 -0.44807015197E-02 -0.10635458642E-01  0.11953650810E+02  0.11954414128E+02  0.13459661090E+00 0.  0.
       11    1    1    2    0    0 -0.98438905396E-02  0.50553410654E-02  0.44214419335E-01  0.45581078909E-01  0.51109989000E-03 0.  1.
     -623    1    1    2    0    0  0.14324592059E-01  0.55801175769E-02  0.21347593829E-02  0.25126704793E+02  0.25126700000E+02 0. -1.
     -611    1    3    3    0    0 -0.21234199496E-01  0.22048728895E-01  0.74176867608E+00  0.74246737739E+00  0.10000000000E-01 0.  1.
      611    1    3    3    0    0  0.16753497976E-01 -0.32684187538E-01  0.11211882134E+02  0.11211946750E+02  0.10000000000E-01 0.  1.
</event>
<event>
 7   0  0.6206631E-02  0.9118800E+02  0.7818608E-02  0.1180000E+00
       11   -1    0    0    0    0  0.00000000000E+00  0.00000000000E+00  0.11999999989E+02  0.12000000000E+02  0.51109989000E-03 0.  1.
     -623   -1    0    0    0    0  0.00000000000E+00  0.00000000000E+00  0.42561509872E-11  0.25126700000E+02  0.25126700000E+02 0.  1.
      622    2    1    2    0    0  0.13118582706E-02  0.12892369589E-02  0.11683658502E+02  0.11683693260E+02  0.28439652430E-01 0.  0.
       11    1    1    2    0    0 -0.10808885881E-02 -0.12076103248E-02  0.31630217407E+00  0.31630673908E+00  0.51109989000E-03 0.  1.
     -623    1    1    2    0    0 -0.23096968250E-03 -0.81626634129E-04  0.39313120313E-04  0.25126700001E+02  0.25126700000E+02 0.  1.
     -611    1    3    3    0    0 -0.60927865299E-02  0.48575549886E-02  0.32348579410E+01  0.32348827825E+01  0.10000000000E-01 0.  1.
      611    1    3    3    0    0  0.74046448005E-02 -0.35683180297E-02  0.84488005608E+01  0.84488104771E+01  0.10000000000E-01 0.  1.
</event>
<event>
 7   0  0.6206631E-02  0.9118800E+02  0.7818608E-02  0.1180000E+00
       11   -1    0    0    0    0  0.00000000000E+00  0.00000000000E+00  0.11999999989E+02  0.12000000000E+02  0.51109989000E-03 0.  1.
     -623   -1    0    0    0    0  0.00000000000E+00  0.00000000000E+00  0.42561509872E-11  0.25126700000E+02  0.25126700000E+02 0.  1.
      622    2    1    2    0    0  0.13477721425E-01  0.99606600775E-02  0.11968942806E+02  0.11969381937E+02  0.10114935872E+00 0.  0.
       11    1    1    2    0    0 -0.60003585982E-02  0.18940366419E-01  0.23265924425E-01  0.30599121652E-01  0.51109989000E-03 0.  1.
     -623    1    1    2    0    0 -0.74773628267E-02 -0.28901026497E-01  0.77912588567E-02  0.25126718942E+02  0.25126700000E+02 0.  1.
     -611    1    3    3    0    0  0.46781359528E-01 -0.20971825614E-01  0.47022176612E+01  0.47025077615E+01  0.10000000000E-01 0.  1.
      611    1    3    3    0    0 -0.33303638103E-01  0.30932485691E-01  0.72667251446E+01  0.72668741752E+01  0.10000000000E-01 0. -1.
</event>
<event>
 7   0  0.6206631E-02  0.9118800E+02  0.7818608E-02  0.1180000E+00
       11   -1    0    0    0    0  0.00000000000E+00  0.00000000000E+00  0.11999999989E+02  0.12000000000E+02  0.51109989000E-03 0. -1.
     -623   -1    0    0    0    0  0.00000000000E+00  0.00000000000E+00  0.42561509872E-11  0.25126700000E+02  0.25126700000E+02 0. -1.
      622    2    1    2    0    0 -0.62382333907E-01 -0.81848154855E-02  0.11142463372E+02  0.11142994117E+02  0.88709329655E-01 0.  0.
       11    1    1    2    0    0  0.48695448805E-01 -0.53598813343E-01  0.85386047067E+00  0.85692592686E+00  0.51109989000E-03 0. -1.
     -623    1    1    2    0    0  0.13686885102E-01  0.61783628829E-01  0.36761460546E-02  0.25126779956E+02  0.25126700000E+02 0. -1.
     -611    1    3    3    0    0 -0.18206003404E-01 -0.43550834755E-01  0.38090417925E+01  0.38093473865E+01  0.10000000000E-01 0.  1.
      611    1    3    3    0    0 -0.44176330502E-01  0.35366019270E-01  0.73334215798E+01  0.73336467307E+01  0.10000000000E-01 0. -1.
</event>
<event>
 7   0  0.6206631E-02  0.9118800E+02  0.7818608E-02  0.1180000E+00
       11   -1    0    0    0    0  0.00000000000E+00  0.00000000000E+00  0.11999999989E+02  0.12000000000E+02  0.51109989000E-03 0.  1.
     -623   -1    0    0    0    0  0.00000000000E+00  0.00000000000E+00  0.42561509872E-11  0.25126700000E+02  0.25126700000E+02 0. -1.
      622    2    1    2    0    0 -0.10505078156E-01 -0.20888623043E-02  0.11798553678E+02  0.11799658583E+02  0.16111819377E+00 0.  0.
       11    1    1    2    0    0 -0.13998451086E-02 -0.26361719995E-02  0.20031523886E+00  0.20033812696E+00  0.51109989000E-03 0.  1.
     -623    1    1    2    0    0  0.11904923265E-01  0.47250343038E-02  0.11310725999E-02  0.25126703290E+02  0.25126700000E+02 0. -1.
     -611    1    3    3    0    0  0.26666966314E-01 -0.38522691083E-01  0.11793602112E+01  0.11803328482E+01  0.10000000000E-01 0. -1.
      611    1    3    3    0    0 -0.37172044470E-01  0.36433828779E-01  0.10619193466E+02  0.10619325735E+02  0.10000000000E-01 0.  1.
</event>
<event>
 7   0  0.6206631E-02  0.9118800E+02  0.7818608E-02  0.1180000E+00
       11   -1    0    0    0    0  0.00000000000E+00  0.00000000000E+00  0.11999999989E+02  0.12000000000E+02  0.51109989000E-03 0.  1.
     -623   -1    0    0    0    0  0.00000000000E+00  0.00000000000E+00  0.42561509872E-11  0.25126700000E+02  0.25126700000E+02 0. -1.
      622    2    1    2    0    0  0.15012563634E-02  0.28707550701E-02  0.11964024544E+02  0.11964364597E+02  0.90146648924E-01 0.  0.
       11    1    1    2    0    0 -0.14172819566E-02 -0.23914027255E-02  0.35523128083E-01  0.35635394583E-01  0.51109989000E-03 0.  1.
     -623    1    1    2    0    0 -0.83974406844E-04 -0.47935234464E-03  0.45231710311E-03  0.25126700009E+02  0.25126700000E+02 0. -1.
     -611    1    3    3    0    0  0.97099116075E-02  0.41375608192E-01  0.40393942270E+01  0.40396301742E+01  0.10000000000E-01 0. -1.
      611    1    3    3    0    0 -0.82086552441E-02 -0.38504853122E-01  0.79246303169E+01  0.79247344224E+01  0.10000000000E-01 0.  1.
</event>
<event>
 7   0  0.6206631E-02  0.9118800E+02  0.7818608E-02  0.1180000E+00
       11   -1    0    0    0    0  0.00000000000E+00  0.00000000000E+00  0.11999999989E+02  0.12000000000E+02  0.51109989000E-03 0.  1.
     -623   -1    0    0    0    0  0.00000000000E+00  0.00000000000E+00  0.42561509872E-11  0.25126700000E+02  0.25126700000E+02 0. -1.
      622    2    1    2    0    0  0.13573908411E-01 -0.11718163928E-02  0.11773676773E+02  0.11774096028E+02  0.98421941586E-01 0.  0.
       11    1    1    2    0    0 -0.11283441896E-02 -0.25382541479E-01  0.22445274255E+00  0.22588678898E+00  0.51109989000E-03 0.  1.
     -623    1    1    2    0    0 -0.12445564221E-01  0.26554357872E-01  0.18704731513E-02  0.25126717183E+02  0.25126700000E+02 0. -1.
     -611    1    3    3    0    0  0.45976028510E-01 -0.79559916705E-02  0.98009300209E+01  0.98010461874E+01  0.10000000000E-01 0.  1.
      611    1    3    3    0    0 -0.32402120100E-01  0.67841752777E-02  0.19727467525E+01  0.19730498402E+01  0.10000000000E-01 0. -1.
</event>
<event>
 7   0  0.6206631E-02  0.9118800E+02  0.7818608E-02  0.1180000E+00
       11   -1    0    0    0    0  0.00000000000E+00  0.00000000000E+00  0.11999999989E+02  0.12000000000E+02  0.51109989000E-03 0.  1.
     -623   -1    0    0    0    0  0.00000000000E+00  0.00000000000E+00  0.42561509872E-11  0.25126700000E+02  0.25126700000E+02 0. -1.
      622    2    1    2    0    0  0.83997562491E-02 -0.16912674428E-01  0.88089085268E+01  0.88096897663E+01  0.11579184375E+00 0.  0.
       11    1    1    2    0    0 -0.26625701135E-02  0.14222508210E-01  0.31902765671E+01  0.31903094215E+01  0.51109989000E-03 0.  1.
     -623    1    1    2    0    0 -0.57371861356E-02  0.26901662183E-02  0.81489525301E-03  0.25126700812E+02  0.25126700000E+02 0. -1.
     -611    1    3    3    0    0  0.59255544169E-01 -0.21216452446E-01  0.55564677207E+01  0.55568331708E+01  0.10000000000E-01 0. -1.
      611    1    3    3    0    0 -0.50855787919E-01  0.43037780180E-02  0.32524408061E+01  0.32528565955E+01  0.10000000000E-01 0.  1.
</event>
<event>
 7   0  0.6206631E-02  0.9118800E+02  0.7818608E-02  0.1180000E+00
       11   -1    0    0    0    0  0.00000000000E+00  0.00000000000E+00  0.11999999989E+02  0.12000000000E+02  0.51109989000E-03 0. -1.
     -623   -1    0    0    0    0  0.00000000000E+00  0.00000000000E+00  0.42561509872E-11  0.25126700000E+02  0.25126700000E+02 0.  1.
      622    2    1    2    0    0  0.72162437631E-02  0.10005578340E-01  0.11910569177E+02  0.11911006582E+02  0.10132860367E+00 0.  0.
       11    1    1    2    0    0 -0.54552417134E-02 -0.11308051259E-01  0.88101715598E-01  0.88993287386E-01  0.51109989000E-03 0. -1.
     -623    1    1    2    0    0 -0.17610020496E-02  0.13024729194E-02  0.13290963325E-02  0.25126700131E+02  0.25126700000E+02 0.  1.
     -611    1    3    3    0    0 -0.19223347266E-01 -0.46376317385E-02  0.62533495484E+00  0.62572745701E+00  0.10000000000E-01 0.  1.
      611    1    3    3    0    0  0.26439591029E-01  0.14643210078E-01  0.11285234222E+02  0.11285279125E+02  0.10000000000E-01 0. -1.
</event>
<event>
 7   0  0.6206631E-02  0.9118800E+02  0.7818608E-02  0.1180000E+00
       11   -1    0    0    0    0  0.00000000000E+00  0.00000000000E+00  0.11999999989E+02  0.12000000000E+02  0.51109989000E-03 0.  1.
     -623   -1    0    0    0    0  0.00000000000E+00  0.00000000000E+00  0.42561509872E-11  0.25126700000E+02  0.25126700000E+02 0. -1.
      622    2    1    2    0    0  0.16648862914E+00  0.82351704551E-01  0.42812278127E+01  0.42866529776E+01  0.10946186148E+00 0.  0.
       11    1    1    2    0    0 -0.17241296680E+00 -0.41023758043E-01  0.77112748947E+01  0.77133112178E+01  0.51109989000E-03 0.  1.
     -623    1    1    2    0    0  0.59243376560E-02 -0.41327946508E-01  0.74972817479E-02  0.25126735805E+02  0.25126700000E+02 0. -1.
     -611    1    3    3    0    0  0.33821092117E-01  0.62315332169E-01  0.21433310669E+01  0.21445267845E+01  0.10000000000E-01 0. -1.
      611    1    3    3    0    0  0.13266753703E+00  0.20036372383E-01  0.21378967458E+01  0.21421261931E+01  0.10000000000E-01 0.  1.
</event>
<event>
 7   0  0.6206631E-02  0.9118800E+02  0.7818608E-02  0.1180000E+00
       11   -1    0    0    0    0  0.00000000000E+00  0.00000000000E+00  0.11999999989E+02  0.12000000000E+02  0.51109989000E-03 0. -1.
     -623   -1    0    0    0    0  0.00000000000E+00  0.00000000000E+00  0.42561509872E-11  0.25126700000E+02  0.25126700000E+02 0. -1.
      622    2    1    2    0    0 -0.12419311507E-02  0.39352580799E-05  0.11958772998E+02  0.11959133006E+02  0.92785151032E-01 0.  0.
       11    1    1    2    0    0 -0.34582292905E-02  0.36226420209E-02  0.40555012670E-01  0.40866283912E-01  0.51109989000E-03 0. -1.
     -623    1    1    2    0    0  0.47001604412E-02 -0.36265772790E-02  0.67197821187E-03  0.25126700710E+02  0.25126700000E+02 0. -1.
     -611    1    3    3    0    0 -0.95439473166E-02  0.25432732608E-01  0.13019804766E+01  0.13023022201E+01  0.10000000000E-01 0.  1.
      611    1    3    3    0    0  0.83020161659E-02 -0.25428797350E-01  0.10656792522E+02  0.10656830786E+02  0.10000000000E-01 0. -1.
</event>
<event>
 7   0  0.6206631E-02  0.9118800E+02  0.7818608E-02  0.1180000E+00
       11   -1    0    0    0    0  0.00000000000E+00  0.00000000000E+00  0.11999999989E+02  0.12000000000E+02  0.51109989000E-03 0. -1.
     -623   -1    0    0    0    0  0.00000000000E+00  0.00000000000E+00  0.42561509872E-11  0.25126700000E+02  0.25126700000E+02 0.  1.
      622    2    1    2    0    0 -0.40253740823E-02  0.18570981422E-01  0.11978303422E+02  0.11978708279E+02  0.96633724252E-01 0.  0.
       11    1    1    2    0    0 -0.40276113773E-02  0.72889995625E-02  0.19572934541E-01  0.21277033574E-01  0.51109989000E-03 0. -1.
     -623    1    1    2    0    0  0.80529854596E-02 -0.25859980984E-01  0.21236325994E-02  0.25126714688E+02  0.25126700000E+02 0.  1.
     -611    1    3    3    0    0 -0.40093160596E-02 -0.31497151169E-01  0.20224796314E+01  0.20227535699E+01  0.10000000000E-01 0.  1.
      611    1    3    3    0    0 -0.16058022749E-04  0.50068132591E-01  0.99558237906E+01  0.99559547090E+01  0.10000000000E-01 0. -1.
</event>
<event>
 7   0  0.6206631E-02  0.9118800E+02  0.7818608E-02  0.1180000E+00
       11   -1    0    0    0    0  0.00000000000E+00  0.00000000000E+00  0.11999999989E+02  0.12000000000E+02  0.51109989000E-03 0. -1.
     -623   -1    0    0    0    0  0.00000000000E+00  0.00000000000E+00  0.42561509872E-11  0.25126700000E+02  0.25126700000E+02 0.  1.
      622    2    1    2    0    0  0.42593428756E-02  0.98118681795E-02  0.10271354915E+02  0.10272090678E+02  0.12247732054E+00 0.  0.
       11    1    1    2    0    0 -0.73496204891E-02  0.11108000946E-01  0.17278489990E+01  0.17279004107E+01  0.51109989000E-03 0. -1.
     -623    1    1    2    0    0  0.30902776135E-02 -0.20919869126E-01  0.79607518998E-03  0.25126708911E+02  0.25126700000E+02 0.  1.
     -611    1    3    3    0    0 -0.12558598236E-02  0.40557881361E-01  0.94354563987E+01  0.94355489491E+01  0.10000000000E-01 0. -1.
      611    1    3    3    0    0  0.55152026992E-02 -0.30746013182E-01  0.83589851622E+00  0.83654172891E+00  0.10000000000E-01 0.  1.
</event>
<event>
 7   0  0.6206631E-02  0.9118800E+02  0.7818608E-02  0.1180000E+00
       11   -1    0    0    0    0  0.00000000000E+00  0.00000000000E+00  0.11999999989E+02  0.12000000000E+02  0.51109989000E-03 0. -1.
     -623   -1    0    0    0    0  0.00000000000E+00  0.00000000000E+00  0.42561509872E-11  0.25126700000E+02  0.25126700000E+02 0.  1.
      622    2    1    2    0    0  0.63598578571E-02 -0.24854215420E-02  0.11829503166E+02  0.11829732637E+02  0.73365270191E-01 0.  0.
       11    1    1    2    0    0  0.53492645328E-02 -0.10738212252E-01  0.16983719575E+00  0.17026114682E+00  0.51109989000E-03 0. -1.
     -623    1    1    2    0    0 -0.11709122390E-01  0.13223633794E-01  0.65962688029E-03  0.25126706217E+02  0.25126700000E+02 0.  1.
     -611    1    3    3    0    0  0.13043147678E-01  0.22154369530E-01  0.98603824369E+01  0.98604210225E+01  0.10000000000E-01 0. -1.
      611    1    3    3    0    0 -0.66832898211E-02 -0.24639791072E-01  0.19691207296E+01  0.19693116141E+01  0.10000000000E-01 0. -1.
</event>
<event>
 7   0  0.6206631E-02  0.9118800E+02  0.7818608E-02  0.1180000E+00
       11   -1    0    0    0    0  0.00000000000E+00  0.00000000000E+00  0.11999999989E+02  0.12000000000E+02  0.51109989000E-03 0. -1.
     -623   -1    0    0    0    0  0.00000000000E+00  0.00000000000E+00  0.42561509872E-11  0.25126700000E+02  0.25126700000E+02 0. -1.
      622    2    1    2    0    0 -0.66085739865E-01 -0.50052813930E-01  0.53188120748E+01  0.53202856071E+01  0.93832001982E-01 0.  0.
       11    1    1    2    0    0  0.60921683237E-01 -0.13541324618E-01  0.66793417478E+01  0.66796333181E+01  0.51109989000E-03 0. -1.
     -623    1    1    2    0    0  0.51640566278E-02  0.63594138548E-01  0.18461664663E-02  0.25126781075E+02  0.25126700000E+02 0. -1.
     -611    1    3    3    0    0 -0.71002554282E-01 -0.64954811467E-01  0.33804487576E+01  0.33818329783E+01  0.10000000000E-01 0.  1.
      611    1    3    3    0    0  0.49168144166E-02  0.14901997538E-01  0.19383633172E+01  0.19384526288E+01  0.10000000000E-01 0. -1.
</event>
<event>
 7   0  0.6206631E-02  0.9118800E+02  0.7818608E-02  0.1180000E+00
       11   -1    0    0    0    0  0.00000000000E+00  0.00000000000E+00  0.11999999989E+02  0.12000000000E+02  0.51109989000E-03 0.  1.
     -623   -1    0    0    0    0  0.00000000000E+00  0.00000000000E+00  0.42561509872E-11  0.25126700000E+02  0.25126700000E+02 0. -1.
      622    2    1    2    0    0 -0.26469485563E-01  0.22982912583E-01  0.11333267845E+02  0.11333715151E+02  0.94394052847E-01 0.  0.
       11    1    1    2    0    0  0.17823950371E-01 -0.33897263974E-01  0.66517916075E+00  0.66628094287E+00  0.51109989000E-03 0.  1.
     -623    1    1    2    0    0  0.86455351919E-02  0.10914351392E-01  0.15529833842E-02  0.25126703906E+02  0.25126700000E+02 0. -1.
     -611    1    3    3    0    0 -0.49796576282E-01  0.18836835779E-01  0.36281268075E+01  0.36285311982E+01  0.10000000000E-01 0. -1.
      611    1    3    3    0    0  0.23327090719E-01  0.41460768034E-02  0.77051410375E+01  0.77051839531E+01  0.10000000000E-01 0.  1.
</event>
<event>
 7   0  0.6206631E-02  0.9118800E+02  0.7818608E-02  0.1180000E+00
       11   -1    0    0    0    0  0.00000000000E+00  0.00000000000E+00  0.11999999989E+02  0.12000000000E+02  0.51109989000E-03 0.  1.
     -623   -1    0    0    0    0  0.00000000000E+00  0.00000000000E+00  0.42561509872E-11  0.25126700000E+02  0.25126700000E+02 0.  1.
      622    2    1    2    0    0 -0.21265863759E-01 -0.25363377948E-01  0.83172274924E+01  0.83179780809E+01  0.10672702328E+00 0.  0.
       11    1    1    2    0    0  0.21010024341E-01  0.28402719594E-01  0.36818521872E+01  0.36820217171E+01  0.51109989000E-03 0.  1.
     -623    1    1    2    0    0  0.25583941853E-03 -0.30393416452E-02  0.92030958373E-03  0.25126700202E+02  0.25126700000E+02 0.  1.
     -611    1    3    3    0    0 -0.32551864761E-02  0.35341416061E-01  0.15154852205E+01  0.15159337273E+01  0.10000000000E-01 0.  1.
      611    1    3    3    0    0 -0.18010677283E-01 -0.60704794009E-01  0.68017422719E+01  0.68020443537E+01  0.10000000000E-01 0. -1.
</event>
<event>
 7   0  0.6206631E-02  0.9118800E+02  0.7818608E-02  0.1180000E+00
       11   -1    0    0    0    0  0.00000000000E+00  0.00000000000E+00  0.11999999989E+02  0.12000000000E+02  0.51109989000E-03 0. -1.
     -623   -1    0    0    0    0  0.00000000000E+00  0.00000000000E+00  0.42561509872E-11  0.25126700000E+02  0.25126700000E+02 0. -1.
      622    2    1    2    0    0 -0.46673139445E-02 -0.24891214364E-02  0.11987321849E+02  0.11987959321E+02  0.12351350996E+00 0.  0.
       11    1    1    2    0    0  0.21118171508E-02 -0.71962821901E-02  0.94030455346E-02  0.12038469068E-01  0.51109989000E-03 0. -1.
     -623    1    1    2    0    0  0.25554967937E-02  0.96854036265E-02  0.32750945729E-02  0.25126702210E+02  0.25126700000E+02 0. -1.
     -611    1    3    3    0    0  0.43578244259E-01  0.10133652825E-02  0.19375051010E+01  0.19380211832E+01  0.10000000000E-01 0.  1.
      611    1    3    3    0    0 -0.48245558203E-01 -0.35024867189E-02  0.10049816748E+02  0.10049938138E+02  0.10000000000E-01 0. -1.
</event>
<event>
 7   0  0.6206631E-02  0.9118800E+02  0.7818608E-02  0.1180000E+00
       11   -1    0    0    0    0  0.00000000000E+00  0.00000000000E+00  0.11999999989E+02  0.12000000000E+02  0.51109989000E-03 0. -1.
     -623   -1    0    0    0    0  0.00000000000E+00  0.00000000000E+00  0.42561509872E-11  0.25126700000E+02  0.25126700000E+02 0. -1.
      622    2    1    2    0    0  0.15527264928E-02  0.28005232142E-01  0.11043190511E+02  0.11044111104E+02  0.13980954837E+00 0.  0.
       11    1    1    2    0    0 -0.11821239086E-01 -0.39744974594E-01  0.95498404891E+00  0.95588398857E+00  0.51109989000E-03 0. -1.
     -623    1    1    2    0    0  0.10268512593E-01  0.11739742452E-01  0.18254287615E-02  0.25126704907E+02  0.25126700000E+02 0. -1.
     -611    1    3    3    0    0 -0.84046306152E-02  0.72598797791E-01  0.35081623869E+01  0.35089378103E+01  0.10000000000E-01 0.  1.
      611    1    3    3    0    0  0.99573571080E-02 -0.44593565649E-01  0.75350281245E+01  0.75351732941E+01  0.10000000000E-01 0. -1.
</event>
<event>
 7   0  0.6206631E-02  0.9118800E+02  0.7818608E-02  0.1180000E+00
       11   -1    0    0    0    0  0.00000000000E+00  0.00000000000E+00  0.11999999989E+02  0.12000000000E+02  0.51109989000E-03 0. -1.
     -623   -1    0    0    0    0  0.00000000000E+00  0.00000000000E+00  0.42561509872E-11  0.25126700000E+02  0.25126700000E+02 0.  1.
      622    2    1    2    0    0 -0.19838721084E-02 -0.34440724272E-02  0.11996264343E+02  0.11996768963E+02  0.10996171527E+00 0.  0.
       11    1    1    2    0    0  0.84622000779E-03  0.16113087677E-02  0.26201549027E-02  0.32309192325E-02  0.51109989000E-03 0. -1.
     -623    1    1    2    0    0  0.11376521006E-02  0.18327636595E-02  0.11154912962E-02  0.25126700117E+02  0.25126700000E+02 0.  1.
     -611    1    3    3    0    0 -0.50113043591E-01  0.13986060621E-01  0.78106459032E+01  0.78108255871E+01  0.10000000000E-01 0.  1.
      611    1    3    3    0    0  0.48129171482E-01 -0.17430133048E-01  0.41856184397E+01  0.41859433763E+01  0.10000000000E-01 0. -1.
</event>
<event>
 7   0  0.6206631E-02  0.9118800E+02  0.7818608E-02  0.1180000E+00
       11   -1    0    0    0    0  0.00000000000E+00  0.00000000000E+00  0.11999999989E+02  0.12000000000E+02  0.51109989000E-03 0. -1.
     -623   -1    0    0    0    0  0.00000000000E+00  0.00000000000E+00  0.42561509872E-11  0.25126700000E+02  0.25126700000E+02 0.  1.
      622    2    1    2    0    0  0.68844594828E-02  0.80047193117E-02  0.11852859707E+02  0.11853189202E+02  0.87747142520E-01 0.  0.
       11    1    1    2    0    0 -0.53592855071E-02  0.33263985253E-02  0.14667173310E+00  0.14680819249E+00  0.51109989000E-03 0. -1.
     -623    1    1    2    0    0 -0.15251739758E-02 -0.11331117837E-01  0.46854942942E-03  0.25126702606E+02  0.25126700000E+02 0.  1.
     -611    1    3    3    0    0  0.22936214906E-02  0.74089011933E-02  0.24678561058E+00  0.24710987456E+00  0.10000000000E-01 0.  1.
      611    1    3    3    0    0  0.45908379923E-02  0.59581811838E-03  0.11606074096E+02  0.11606079327E+02  0.10000000000E-01 0. -1.
</event>
<event>
 7   0  0.6206631E-02  0.9118800E+02  0.7818608E-02  0.1180000E+00
       11   -1    0    0    0    0  0.00000000000E+00  0.00000000000E+00  0.11999999989E+02  0.12000000000E+02  0.51109989000E-03 0.  1.
     -623   -1    0    0    0    0  0.00000000000E+00  0.00000000000E+00  0.42561509872E-11  0.25126700000E+02  0.25126700000E+02 0.  1.
      622    2    1    2    0    0  0.31498362153E-01 -0.45856295047E-01  0.85314677749E+01  0.85319717082E+01  0.74188197088E-01 0.  0.
       11    1    1    2    0    0 -0.37156636455E-01  0.46258725506E-01  0.34675199932E+01  0.34680276311E+01  0.51109989000E-03 0.  1.
     -623    1    1    2    0    0  0.56582743020E-02 -0.40243045827E-03  0.10122209721E-02  0.25126700661E+02  0.25126700000E+02 0.  1.
     -611    1    3    3    0    0  0.27841907134E-01 -0.55985387682E-01  0.81110516800E+01  0.81112988412E+01  0.10000000000E-01 0.  1.
      611    1    3    3    0    0  0.36564550190E-02  0.10129092635E-01  0.42041609493E+00  0.42067286703E+00  0.10000000000E-01 0. -1.
</event>
<event>
 7   0  0.6206631E-02  0.9118800E+02  0.7818608E-02  0.1180000E+00
       11   -1    0    0    0    0  0.00000000000E+00  0.00000000000E+00  0.11999999989E+02  0.12000000000E+02  0.51109989000E-03 0.  1.
     -623   -1    0    0    0    0  0.00000000000E+00  0.00000000000E+00  0.42561509872E-11  0.25126700000E+02  0.25126700000E+02 0. -1.
      622    2    1    2    0    0 -0.49626362646E-01  0.56477313591E-01  0.11677221918E+02  0.11677758809E+02  0.82985678081E-01 0.  0.
       11    1    1    2    0    0 -0.12761936683E-01 -0.55916893813E-01  0.31701611455E+00  0.32216307074E+00  0.51109989000E-03 0.  1.
     -623    1    1    2    0    0  0.62388299329E-01 -0.56041977862E-03  0.57619568413E-02  0.25126778120E+02  0.25126700000E+02 0. -1.
     -611    1    3    3    0    0 -0.45135323353E-01 -0.52217246005E-02  0.37364459258E+01  0.37367355566E+01  0.10000000000E-01 0. -1.
      611    1    3    3    0    0 -0.44910392929E-02  0.61699038192E-01  0.79407759920E+01  0.79410232524E+01  0.10000000000E-01 0.  1.
</event>
<event>
 7   0  0.6206631E-02  0.9118800E+02  0.7818608E-02  0.1180000E+00
       11   -1    0    0    0    0  0.00000000000E+00  0.00000000000E+00  0.11999999989E+02  0.12000000000E+02  0.51109989000E-03 0.  1.
     -623   -1    0    0    0    0  0.00000000000E+00  0.00000000000E+00  0.42561509872E-11  0.25126700000E+02  0.25126700000E+02 0. -1.
      622    2    1    2    0    0 -0.13703541407E+00 -0.67580912081E-01  0.97276943468E+01  0.97294014053E+01  0.99340402935E-01 0.  0.
       11    1    1    2    0    0  0.12893273166E+00  0.11445030269E+00  0.22639974641E+01  0.22705522015E+01  0.51109989000E-03 0.  1.
     -623    1    1    2    0    0  0.81026824121E-02 -0.46869390610E-01  0.83081782077E-02  0.25126746393E+02  0.25126700000E+02 0. -1.
     -611    1    3    3    0    0 -0.18191467029E-01 -0.55855329463E-01  0.40854501727E+01  0.40858847097E+01  0.10000000000E-01 0. -1.
      611    1    3    3    0    0 -0.11884394704E+00 -0.11725582617E-01  0.56422441741E+01  0.56435166956E+01  0.10000000000E-01 0.  1.
</event>
<event>
 7   0  0.6206631E-02  0.9118800E+02  0.7818608E-02  0.1180000E+00
       11   -1    0    0    0    0  0.00000000000E+00  0.00000000000E+00  0.11999999989E+02  0.12000000000E+02  0.51109989000E-03 0. -1.
     -623   -1    0    0    0    0  0.00000000000E+00  0.00000000000E+00  0.42561509872E-11  0.25126700000E+02  0.25126700000E+02 0.  1.
      622    2    1    2    0    0 -0.25649905879E-02 -0.30085454276E-01  0.10343374005E+02  0.10343844935E+02  0.93970837104E-01 0.  0.
       11    1    1    2    0    0  0.16279789701E-01  0.44021311627E-01  0.16554821487E+01  0.16561474310E+01  0.51109989000E-03 0. -1.
     -623    1    1    2    0    0 -0.13714799113E-01 -0.13935857351E-01  0.11438350063E-02  0.25126707634E+02  0.25126700000E+02 0.  1.
     -611    1    3    3    0    0  0.32326757696E-01 -0.20143697767E-01  0.84774182358E+01  0.84775097011E+01  0.10000000000E-01 0. -1.
      611    1    3    3    0    0 -0.34891748284E-01 -0.99417565089E-02  0.18659557696E+01  0.18663352343E+01  0.10000000000E-01 0.  1.
</event>
<event>
 7   0  0.6206631E-02  0.9118800E+02  0.7818608E-02  0.1180000E+00
       11   -1    0    0    0    0  0.00000000000E+00  0.00000000000E+00  0.11999999989E+02  0.12000000000E+02  0.51109989000E-03 0. -1.
     -623   -1    0    0    0    0  0.00000000000E+00  0.00000000000E+00  0.42561509872E-11  0.25126700000E+02  0.25126700000E+02 0.  1.
      622    2    1    2    0    0  0.12376278092E-01 -0.50252125413E-01  0.11938044740E+02  0.11938557213E+02  0.97763297825E-01 0.  0.
       11    1    1    2    0    0  0.14862084891E-01 -0.88886277901E-02  0.58861551645E-01  0.61358232998E-01  0.51109989000E-03 0. -1.
     -623    1    1    2    0    0 -0.27238362983E-01  0.59140753203E-01  0.30936972430E-02  0.25126784554E+02  0.25126700000E+02 0.  1.
     -611    1    3    3    0    0 -0.20486555468E-01 -0.65088134454E-01  0.91740492104E+01  0.91743084251E+01  0.10000000000E-01 0. -1.
      611    1    3    3    0    0  0.32862833560E-01  0.14836009041E-01  0.27639955298E+01  0.27642487880E+01  0.10000000000E-01 0.  1.
</event>
<event>
 7   0  0.6206631E-02  0.9118800E+02  0.7818608E-02  0.1180000E+00
       11   -1    0    0    0    0  0.00000000000E+00  0.00000000000E+00  0.11999999989E+02  0.12000000000E+02  0.51109989000E-03 0. -1.
     -623   -1    0    0    0    0  0.00000000000E+00  0.00000000000E+00  0.42561509872E-11  0.25126700000E+02  0.25126700000E+02 0.  1.
      622    2    1    2    0    0 -0.78477283068E-02  0.17961216186E-02  0.11918635353E+02  0.11918921039E+02  0.82129349964E-01 0.  0.
       11    1    1    2    0    0 -0.14194157587E-02 -0.13279470411E-02  0.81052331418E-01  0.81077246105E-01  0.51109989000E-03 0. -1.
     -623    1    1    2    0    0  0.92671440655E-02 -0.46817457750E-03  0.31230449666E-03  0.25126701715E+02  0.25126700000E+02 0.  1.
     -611    1    3    3    0    0  0.15893547232E-02 -0.25593024027E-01  0.10024408955E+02  0.10024446739E+02  0.10000000000E-01 0. -1.
      611    1    3    3    0    0 -0.94370830300E-02  0.27389145646E-01  0.18942263979E+01  0.18944742992E+01  0.10000000000E-01 0. -1.
</event>
<event>
 7   0  0.6206631E-02  0.9118800E+02  0.7818608E-02  0.1180000E+00
       11   -1    0    0    0    0  0.00000000000E+00  0.00000000000E+00  0.11999999989E+02  0.12000000000E+02  0.51109989000E-03 0.  1.
     -623   -1    0    0    0    0  0.00000000000E+00  0.00000000000E+00  0.42561509872E-11  0.25126700000E+02  0.25126700000E+02 0.  1.
      622    2    1    2    0    0  0.11052349645E+00  0.23624530198E-01  0.11363939924E+02  0.11364944345E+02  0.10027858726E+00 0.  0.
       11    1    1    2    0    0 -0.30718636222E-02  0.75580685379E-01  0.63010498066E+00  0.63462935972E+00  0.51109989000E-03 0.  1.
     -623    1    1    2    0    0 -0.10745163283E+00 -0.99205215577E-01  0.59550843837E-02  0.25127126296E+02  0.25126700000E+02 0.  1.
     -611    1    3    3    0    0  0.23688455048E-01  0.17990514199E-01  0.76610567208E+00  0.76674813485E+00  0.10000000000E-01 0. -1.
      611    1    3    3    0    0  0.86835041406E-01  0.56340159995E-02  0.10597834252E+02  0.10598196210E+02  0.10000000000E-01 0.  1.
</event>
<event>
 7   0  0.6206631E-02  0.9118800E+02  0.7818608E-02  0.1180000E+00
       11   -1    0    0    0    0  0.00000000000E+00  0.00000000000E+00  0.11999999989E+02  0.12000000000E+02  0.51109989000E-03 0. -1.
     -623   -1    0    0    0    0  0.00000000000E+00  0.00000000000E+00  0.42561509872E-11  0.25126700000E+02  0.25126700000E+02 0.  1.
      622    2    1    2    0    0 -0.39314126692E-01  0.42474095519E-01  0.31033842559E+01  0.31057392307E+01  0.10617287874E+00 0.  0.
       11    1    1    2    0    0 -0.62746292790E-03 -0.52924111502E-01  0.88940692237E+01  0.88942267215E+01  0.51109989000E-03 0. -1.
     -623    1    1    2    0    0  0.39941589620E-01  0.10450015983E-01  0.25465094809E-02  0.25126734048E+02  0.25126700000E+02 0.  1.
     -611    1    3    3    0    0 -0.67293136657E-01  0.48739363151E-01  0.26600960869E+01  0.26614122347E+01  0.10000000000E-01 0. -1.
      611    1    3    3    0    0  0.27979009965E-01 -0.62652676317E-02  0.44328816902E+00  0.44432699599E+00  0.10000000000E-01 0.  1.
</event>
<event>
 7   0  0.6206631E-02  0.9118800E+02  0.7818608E-02  0.1180000E+00
       11   -1    0    0    0    0  0.00000000000E+00  0.00000000000E+00  0.11999999989E+02  0.12000000000E+02  0.51109989000E-03 0. -1.
     -623   -1    0    0    0    0  0.00000000000E+00  0.00000000000E+00  0.42561509872E-11  0.25126700000E+02  0.25126700000E+02 0. -1.
      622    2    1    2    0    0  0.18447171342E-02 -0.32553928951E-02  0.11996624881E+02  0.11996799339E+02  0.64589771356E-01 0.  0.
       11    1    1    2    0    0 -0.70038733862E-03 -0.11113146447E-02  0.28731200046E-02  0.32002506714E-02  0.51109989000E-03 0. -1.
     -623    1    1    2    0    0 -0.11443297955E-02  0.43667075399E-02  0.50198806209E-03  0.25126700411E+02  0.25126700000E+02 0. -1.
     -611    1    3    3    0    0  0.19715764863E-01 -0.22121007184E-01  0.38552683216E+01  0.38553951654E+01  0.10000000000E-01 0.  1.
      611    1    3    3    0    0 -0.17871047729E-01  0.18865614288E-01  0.81413565595E+01  0.81414041734E+01  0.10000000000E-01 0. -1.
</event>
<event>
 7   0  0.6206631E-02  0.9118800E+02  0.7818608E-02  0.1180000E+00
       11   -1    0    0    0    0  0.00000000000E+00  0.00000000000E+00  0.11999999989E+02  0.12000000000E+02  0.51109989000E-03 0. -1.
     -623   -1    0    0    0    0  0.00000000000E+00  0.00000000000E+00  0.42561509872E-11  0.25126700000E+02  0.25126700000E+02 0.  1.
      622    2    1    2    0    0 -0.20131388258E-02  0.18672107586E-02  0.11982759356E+02  0.11983134091E+02  0.94727589515E-01 0.  0.
       11    1    1    2    0    0  0.32322175816E-02 -0.17841257643E-02  0.16448887312E-01  0.16865866482E-01  0.51109989000E-03 0. -1.
     -623    1    1    2    0    0 -0.12190787558E-02 -0.83084994298E-04  0.79174532181E-03  0.25126700042E+02  0.25126700000E+02 0.  1.
     -611    1    3    3    0    0 -0.92950582658E-02 -0.31561388628E-01  0.99689715949E+01  0.99690309047E+01  0.10000000000E-01 0. -1.
      611    1    3    3    0    0  0.72819194400E-02  0.33428599387E-01  0.20137877616E+01  0.20141031866E+01  0.10000000000E-01 0.  1.
</event>
<event>
 7   0  0.6206631E-02  0.9118800E+02  0.7818608E-02  0.1180000E+00
       11   -1    0    0    0    0  0.00000000000E+00  0.00000000000E+00  0.11999999989E+02  0.12000000000E+02  0.51109989000E-03 0. -1.
     -623   -1    0    0    0    0  0.00000000000E+00  0.00000000000E+00  0.42561509872E-11  0.25126700000E+02  0.25126700000E+02 0.  1.
      622    2    1    2    0    0  0.42181617913E-01  0.45423928449E-01  0.23845758965E+01  0.23904476341E+01  0.15554762400E+00 0.  0.
       11    1    1    2    0    0 -0.20161644922E+00  0.16160612951E+00  0.96047163297E+01  0.96081913890E+01  0.51109989000E-03 0. -1.
     -623    1    1    2    0    0  0.15943483131E+00 -0.20703005796E+00  0.10707763001E-01  0.25128060977E+02  0.25126700000E+02 0.  1.
     -611    1    3    3    0    0  0.88815804359E-01  0.42354981578E-01  0.96238426729E+00  0.96745318723E+00  0.10000000000E-01 0. -1.
      611    1    3    3    0    0 -0.46634186446E-01  0.30689468708E-02  0.14221916292E+01  0.14229944469E+01  0.10000000000E-01 0.  1.
</event>
<event>
 7   0  0.6206631E-02  0.9118800E+02  0.7818608E-02  0.1180000E+00
       11   -1    0    0    0    0  0.00000000000E+00  0.00000000000E+00  0.11999999989E+02  0.12000000000E+02  0.51109989000E-03 0. -1.
     -623   -1    0    0    0    0  0.00000000000E+00  0.00000000000E+00  0.42561509872E-11  0.25126700000E+02  0.25126700000E+02 0.  1.
      622    2    1    2    0    0  0.28493447576E-01  0.12048817640E-01  0.10272268386E+02  0.10273278318E+02  0.14068600092E+00 0.  0.
       11    1    1    2    0    0 -0.31776677203E-01 -0.68124104953E-02  0.17264149548E+01  0.17267208876E+01  0.51109989000E-03 0. -1.
     -623    1    1    2    0    0  0.32832296267E-02 -0.52364071442E-02  0.13166483356E-02  0.25126700795E+02  0.25126700000E+02 0.  1.
     -611    1    3    3    0    0  0.27915291658E-02  0.18375806506E-01  0.98673273579E+01  0.98673499305E+01  0.10000000000E-01 0. -1.
      611    1    3    3    0    0  0.25701918411E-01 -0.63269888665E-02  0.40494102802E+00  0.40592838725E+00  0.10000000000E-01 0. -1.
</event>
<event>
 7   0  0.6206631E-02  0.9118800E+02  0.7818608E-02  0.1180000E+00
       11   -1    0    0    0    0  0.00000000000E+00  0.00000000000E+00  0.11999999989E+02  0.12000000000E+02  0.51109989000E-03 0. -1.
     -623   -1    0    0    0    0  0.00000000000E+00  0.00000000000E+00  0.42561509872E-11  0.25126700000E+02  0.25126700000E+02 0.  1.
      622    2    1    2    0    0 -0.57533220633E-01  0.13500841585E+00  0.41035341799E+01  0.41072236214E+01  0.93572253942E-01 0.  0.
       11    1    1    2    0    0  0.55112415994E-01 -0.15914988491E+00  0.78909668752E+01  0.78927640628E+01  0.51109989000E-03 0. -1.
     -623    1    1    2    0    0  0.24208046393E-02  0.24141469056E-01  0.54989339749E-02  0.25126712316E+02  0.25126700000E+02 0.  1.
     -611    1    3    3    0    0 -0.23597648606E-01  0.13620208845E+00  0.33106649694E+01  0.33135646059E+01  0.10000000000E-01 0. -1.
      611    1    3    3    0    0 -0.33935572027E-01 -0.11936726042E-02  0.79286921050E+00  0.79365901548E+00  0.10000000000E-01 0.  1.
</event>
<event>
 7   0  0.6206631E-02  0.9118800E+02  0.7818608E-02  0.1180000E+00
       11   -1    0    0    0    0  0.00000000000E+00  0.00000000000E+00  0.11999999989E+02  0.12000000000E+02  0.51109989000E-03 0.  1.
     -623   -1    0    0    0    0  0.00000000000E+00  0.00000000000E+00  0.42561509872E-11  0.25126700000E+02  0.25126700000E+02 0. -1.
      622    2    1    2    0    0 -0.22542778761E-02 -0.33004913474E-02  0.11821701932E+02  0.11821873185E+02  0.63506297006E-01 0.  0.
       11    1    1    2    0    0 -0.11533369150E-03  0.30407846698E-02  0.17809997409E+00  0.17812670116E+00  0.51109989000E-03 0.  1.
     -623    1    1    2    0    0  0.23696115675E-02  0.25970667768E-03  0.19808269571E-03  0.25126700114E+02  0.25126700000E+02 0. -1.
     -611    1    3    3    0    0  0.10586642217E-01 -0.22241360104E-01  0.94953742878E+01  0.94954115035E+01  0.10000000000E-01 0.  1.
      611    1    3    3    0    0 -0.12840920093E-01  0.18940868757E-01  0.23263276445E+01  0.23264616815E+01  0.10000000000E-01 0. -1.
</event>
<event>
 7   0  0.6206631E-02  0.9118800E+02  0.7818608E-02  0.1180000E+00
       11   -1    0    0    0    0  0.00000000000E+00  0.00000000000E+00  0.11999999989E+02  0.12000000000E+02  0.51109989000E-03 0.  1.
     -623   -1    0    0    0    0  0.00000000000E+00  0.00000000000E+00  0.42561509872E-11  0.25126700000E+02  0.25126700000E+02 0. -1.
      622    2    1    2    0    0  0.61156976506E-02 -0.93899946581E-03  0.11955880483E+02  0.11956210689E+02  0.88643311305E-01 0.  0.
       11    1    1    2    0    0 -0.10949297057E-01 -0.70407833658E-02  0.41804566089E-01  0.43787472015E-01  0.51109989000E-03 0.  1.
     -623    1    1    2    0    0  0.48335994063E-02  0.79797828316E-02  0.23149398920E-02  0.25126701839E+02  0.25126700000E+02 0. -1.
     -611    1    3    3    0    0 -0.19847068657E-01  0.24761411796E-01  0.93065599870E+01  0.93066194628E+01  0.10000000000E-01 0.  1.
      611    1    3    3    0    0  0.25962766308E-01 -0.25700411262E-01  0.26493204962E+01  0.26495912266E+01  0.10000000000E-01 0. -1.
</event>
<event>
 7   0  0.6206631E-02  0.9118800E+02  0.7818608E-02  0.1180000E+00
       11   -1    0    0    0    0  0.00000000000E+00  0.00000000000E+00  0.11999999989E+02  0.12000000000E+02  0.51109989000E-03 0.  1.
     -623   -1    0    0    0    0  0.00000000000E+00  0.00000000000E+00  0.42561509872E-11  0.25126700000E+02  0.25126700000E+02 0.  1.
      622    2    1    2    0    0  0.13526628928E-03  0.21968741183E-01  0.11533090557E+02  0.11533366089E+02  0.76634915898E-01 0.  0.
       11    1    1    2    0    0 -0.22794323067E-01  0.14462387832E-01  0.46581541319E+00  0.46659725912E+00  0.51109989000E-03 0.  1.
     -623    1    1    2    0    0  0.22659056778E-01 -0.36431129015E-01  0.10940187236E-02  0.25126736651E+02  0.25126700000E+02 0.  1.
     -611    1    3    3    0    0 -0.20694070812E-01  0.96646835201E-02  0.10133945517E+02  0.10133976189E+02  0.10000000000E-01 0.  1.
      611    1    3    3    0    0  0.20829337101E-01  0.12304057663E-01  0.13991450398E+01  0.13993899005E+01  0.10000000000E-01 0. -1.
</event>
<event>
 7   0  0.6206631E-02  0.9118800E+02  0.7818608E-02  0.1180000E+00
       11   -1    0    0    0    0  0.00000000000E+00  0.00000000000E+00  0.11999999989E+02  0.12000000000E+02  0.51109989000E-03 0.  1.
     -623   -1    0    0    0    0  0.00000000000E+00  0.00000000000E+00  0.42561509872E-11  0.25126700000E+02  0.25126700000E+02 0.  1.
      622    2    1    2    0    0  0.38369005739E-01  0.28475520918E-01  0.11504230819E+02  0.11504878195E+02  0.11230544054E+00 0.  0.
       11    1    1    2    0    0  0.24056086605E-01 -0.15603261576E-01  0.49420955965E+00  0.49504091462E+00  0.51109989000E-03 0.  1.
     -623    1    1    2    0    0 -0.62425092344E-01 -0.12872259342E-01  0.15596105248E-02  0.25126780890E+02  0.25126700000E+02 0.  1.
     -611    1    3    3    0    0  0.67342342975E-01  0.36147108940E-01  0.52318747323E+01  0.52324425290E+01  0.10000000000E-01 0. -1.
      611    1    3    3    0    0 -0.28973337236E-01 -0.76715880229E-02  0.62723560866E+01  0.62724356660E+01  0.10000000000E-01 0.  1.
</event>
<event>
 7   0  0.6206631E-02  0.9118800E+02  0.7818608E-02  0.1180000E+00
       11   -1    0    0    0    0  0.00000000000E+00  0.00000000000E+00  0.11999999989E+02  0.12000000000E+02  0.51109989000E-03 0.  1.
     -623   -1    0    0    0    0  0.00000000000E+00  0.00000000000E+00  0.42561509872E-11  0.25126700000E+02  0.25126700000E+02 0.  1.
      622    2    1    2    0    0  0.13430689677E-01  0.22455669027E-02  0.11867500023E+02  0.11867975443E+02  0.10535125103E+00 0.  0.
       11    1    1    2    0    0  0.24767633027E-02  0.57550888316E-03  0.13199387905E+00  0.13201935804E+00  0.51109989000E-03 0.  1.
     -623    1    1    2    0    0 -0.15907452980E-01 -0.28210757859E-02  0.50608666975E-03  0.25126705199E+02  0.25126700000E+02 0.  1.
     -611    1    3    3    0    0  0.32467597868E-01 -0.43471298912E-01  0.55982445691E+01  0.55985164244E+01  0.10000000000E-01 0. -1.
      611    1    3    3    0    0 -0.19036908191E-01  0.45716865815E-01  0.62692554543E+01  0.62694590187E+01  0.10000000000E-01 0.  1.
</event>
<event>
 7   0  0.6206631E-02  0.9118800E+02  0.7818608E-02  0.1180000E+00
       11   -1    0    0    0    0  0.00000000000E+00  0.00000000000E+00  0.11999999989E+02  0.12000000000E+02  0.51109989000E-03 0. -1.
     -623   -1    0    0    0    0  0.00000000000E+00  0.00000000000E+00  0.42561509872E-11  0.25126700000E+02  0.25126700000E+02 0. -1.
      622    2    1    2    0    0 -0.99490794920E-01  0.54618690539E-01  0.38440784910E+01  0.38469539523E+01  0.96091863605E-01 0.  0.
       11    1    1    2    0    0  0.10160453378E+00 -0.59655265785E-01  0.81521937644E+01  0.81530451775E+01  0.51109989000E-03 0. -1.
     -623    1    1    2    0    0 -0.21137388627E-02  0.50365752464E-02  0.37277336462E-02  0.25126700870E+02  0.25126700000E+02 0. -1.
     -611    1    3    3    0    0 -0.88344980692E-01  0.61016135981E-03  0.19172021584E+01  0.19192627032E+01  0.10000000000E-01 0.  1.
      611    1    3    3    0    0 -0.11145814229E-01  0.54008529179E-01  0.19268763326E+01  0.19276912491E+01  0.10000000000E-01 0. -1.
</event>
<event>
 7   0  0.6206631E-02  0.9118800E+02  0.7818608E-02  0.1180000E+00
       11   -1    0    0    0    0  0.00000000000E+00  0.00000000000E+00  0.11999999989E+02  0.12000000000E+02  0.51109989000E-03 0.  1.
     -623   -1    0    0    0    0  0.00000000000E+00  0.00000000000E+00  0.42561509872E-11  0.25126700000E+02  0.25126700000E+02 0. -1.
      622    2    1    2    0    0  0.38088308745E-01 -0.90461726513E-01  0.87566900965E+01  0.87576526070E+01  0.84992326533E-01 0.  0.
       11    1    1    2    0    0 -0.53707092010E-01  0.94214445285E-01  0.32405279273E+01  0.32423421044E+01  0.51109989000E-03 0.  1.
     -623    1    1    2    0    0  0.15618783265E-01 -0.37527187723E-02  0.27819653384E-02  0.25126705289E+02  0.25126700000E+02 0. -1.
     -611    1    3    3    0    0  0.61286163907E-01 -0.57063868356E-01  0.47988054627E+01  0.47995464523E+01  0.10000000000E-01 0.  1.
      611    1    3    3    0    0 -0.23197855162E-01 -0.33397858156E-01  0.39578846338E+01  0.39581061547E+01  0.10000000000E-01 0. -1.
</event>
<event>
 7   0  0.6206631E-02  0.9118800E+02  0.7818608E-02  0.1180000E+00
       11   -1    0    0    0    0  0.00000000000E+00  0.00000000000E+00  0.11999999989E+02  0.12000000000E+02  0.51109989000E-03 0.  1.
     -623   -1    0    0    0    0  0.00000000000E+00  0.00000000000E+00  0.42561509872E-11  0.25126700000E+02  0.25126700000E+02 0.  1.
      622    2    1    2    0    0  0.13135655217E-01  0.19589628087E-01  0.11553779206E+02  0.11554508811E+02  0.12768565422E+00 0.  0.
       11    1    1    2    0    0  0.21147721995E-01 -0.14065005231E-01  0.44474225096E+00  0.44546714978E+00  0.51109989000E-03 0.  1.
     -623    1    1    2    0    0 -0.34283377212E-01 -0.55246228559E-02  0.14785323633E-02  0.25126724039E+02  0.25126700000E+02 0.  1.
     -611    1    3    3    0    0  0.68682746260E-01  0.13501053057E-01  0.74782930959E+01  0.74786273625E+01  0.10000000000E-01 0.  1.
      611    1    3    3    0    0 -0.55547091043E-01  0.60885750306E-02  0.40754861099E+01  0.40758814484E+01  0.10000000000E-01 0. -1.
</event>
<event>
 6   0  0.6206631E-02  0.9118800E+02  0.7818608E-02  0.1180000E+00
       11   -1    0    0    0    0  0.00000000000E+00  0.00000000000E+00  0.11999999989E+02  0.12000000000E+02  0.51109989000E-03 0. -1.
     -623   -1    0    0    0    0  0.00000000000E+00  0.00000000000E+00  0.42561509872E-11  0.25126700000E+02  0.25126700000E+02 0.  1.
       11    1    1    2    0    0  0.10602879839E+00  0.24348871768E-02  0.17370493261E+01  0.17402840738E+01  0.51109989000E-03 0. -1.
     -623    1    1    2    0    0  0.33784882771E-01 -0.36654625708E-01  0.89569868972E-02  0.25126751045E+02  0.25126700000E+02 0.  1.
     -611    1    1    2    0    0 -0.17368179164E+00  0.65729957009E-01  0.99714978223E+01  0.99732319040E+01  0.10000000000E-01 0. -1.
      611    1    1    2    0    0  0.33868110480E-01 -0.31510218478E-01  0.28249585384E+00  0.28643297682E+00  0.10000000000E-01 0.  1.
</event>
<event>
 7   0  0.6206631E-02  0.9118800E+02  0.7818608E-02  0.1180000E+00
       11   -1    0    0    0    0  0.00000000000E+00  0.00000000000E+00  0.11999999989E+02  0.12000000000E+02  0.51109989000E-03 0. -1.
     -623   -1    0    0    0    0  0.00000000000E+00  0.00000000000E+00  0.42561509872E-11  0.25126700000E+02  0.25126700000E+02 0.  1.
      622    2    1    2    0    0  0.24570283287E-01 -0.17355358833E-01  0.11738050257E+02  0.11738647145E+02  0.11449041257E+00 0.  0.
       11    1    1    2    0    0 -0.17262133231E-01  0.21436306957E-01  0.25989764211E+00  0.26135137669E+00  0.51109989000E-03 0. -1.
     -623    1    1    2    0    0 -0.73081500560E-02 -0.40809481246E-02  0.20520898176E-02  0.25126701478E+02  0.25126700000E+02 0.  1.
     -611    1    3    3    0    0 -0.34533332800E-01 -0.32544830450E-01  0.73654881350E+01  0.73656477776E+01  0.10000000000E-01 0.  1.
      611    1    3    3    0    0  0.59103616088E-01  0.15189471617E-01  0.43725621222E+01  0.43729993677E+01  0.10000000000E-01 0. -1.
</event>
<event>
 7   0  0.6206631E-02  0.9118800E+02  0.7818608E-02  0.1180000E+00
       11   -1    0    0    0    0  0.00000000000E+00  0.00000000000E+00  0.11999999989E+02  0.12000000000E+02  0.51109989000E-03 0. -1.
     -623   -1    0    0    0    0  0.00000000000E+00  0.00000000000E+00  0.42561509872E-11  0.25126700000E+02  0.25126700000E+02 0. -1.
      622    2    1    2    0    0  0.16856653165E-02 -0.70322041518E-02  0.98968712910E+01  0.98973883213E+01  0.10090558420E+00 0.  0.
       11    1    1    2    0    0 -0.15830385188E-02  0.67044371228E-02  0.21026003238E+01  0.21026116708E+01  0.51109989000E-03 0. -1.
     -623    1    1    2    0    0 -0.10262679773E-03  0.32776702904E-03  0.52837427743E-03  0.25126700008E+02  0.25126700000E+02 0. -1.
     -611    1    3    3    0    0 -0.62857803080E-02  0.24667443347E-01  0.82605710707E+00  0.82650973251E+00  0.10000000000E-01 0.  1.
      611    1    3    3    0    0  0.79714456245E-02 -0.31699647499E-01  0.90708141840E+01  0.90708785887E+01  0.10000000000E-01 0. -1.
</event>
<event>
 7   0  0.6206631E-02  0.9118800E+02  0.7818608E-02  0.1180000E+00
       11   -1    0    0    0    0  0.00000000000E+00  0.00000000000E+00  0.11999999989E+02  0.12000000000E+02  0.51109989000E-03 0.  1.
     -623   -1    0    0    0    0  0.00000000000E+00  0.00000000000E+00  0.42561509872E-11  0.25126700000E+02  0.25126700000E+02 0. -1.
      622    2    1    2    0    0  0.35608459639E-02  0.80435371634E-03  0.11852726381E+02  0.11853210887E+02  0.10710897238E+00 0.  0.
       11    1    1    2    0    0 -0.25903575402E-02 -0.15204412235E-03  0.14676525486E+00  0.14678908109E+00  0.51109989000E-03 0.  1.
     -623    1    1    2    0    0 -0.97048842367E-03 -0.65230959400E-03  0.50835326708E-03  0.25126700032E+02  0.25126700000E+02 0. -1.
     -611    1    3    3    0    0 -0.25220006127E-01  0.21319426125E-01  0.14176093085E+01  0.14180291669E+01  0.10000000000E-01 0. -1.
      611    1    3    3    0    0  0.28780852091E-01 -0.20515072409E-01  0.10435117072E+02  0.10435181720E+02  0.10000000000E-01 0.  1.
</event>
<event>
 7   0  0.6206631E-02  0.9118800E+02  0.7818608E-02  0.1180000E+00
       11   -1    0    0    0    0  0.00000000000E+00  0.00000000000E+00  0.11999999989E+02  0.12000000000E+02  0.51109989000E-03 0. -1.
     -623   -1    0    0    0    0  0.00000000000E+00  0.00000000000E+00  0.42561509872E-11  0.25126700000E+02  0.25126700000E+02 0. -1.
      622    2    1    2    0    0  0.16671068505E+00 -0.47287732141E-01  0.10381785685E+02  0.10383843376E+02  0.11269724291E+00 0.  0.
       11    1    1    2    0    0 -0.28553693187E+00  0.13644723803E+00  0.15843989302E+01  0.16156947173E+01  0.51109989000E-03 0. -1.
     -623    1    1    2    0    0  0.11882624682E+00 -0.89159505889E-01  0.33815373605E-01  0.25127161906E+02  0.25126700000E+02 0. -1.
     -611    1    3    3    0    0  0.11337266407E-01 -0.48101748597E-01  0.28927651452E+01  0.28932045377E+01  0.10000000000E-01 0.  1.
      611    1    3    3    0    0  0.15537341864E+00  0.81401645576E-03  0.74890205402E+01  0.74906388388E+01  0.10000000000E-01 0. -1.
</event>
<event>
 7   0  0.6206631E-02  0.9118800E+02  0.7818608E-02  0.1180000E+00
       11   -1    0    0    0    0  0.00000000000E+00  0.00000000000E+00  0.11999999989E+02  0.12000000000E+02  0.51109989000E-03 0. -1.
     -623   -1    0    0    0    0  0.00000000000E+00  0.00000000000E+00  0.42561509872E-11  0.25126700000E+02  0.25126700000E+02 0.  1.
      622    2    1    2    0    0 -0.95498061581E-03 -0.11831469523E-02  0.11992727137E+02  0.11993247041E+02  0.11166053023E+00 0.  0.
       11    1    1    2    0    0  0.45699207240E-04 -0.12787468535E-03  0.67321640757E-02  0.67529028302E-02  0.51109989000E-03 0. -1.
     -623    1    1    2    0    0  0.90928140857E-03  0.13110216376E-02  0.54068759264E-03  0.25126700056E+02  0.25126700000E+02 0.  1.
     -611    1    3    3    0    0  0.53070690638E-01 -0.87421852727E-02  0.69367658744E+01  0.69369816001E+01  0.10000000000E-01 0. -1.
      611    1    3    3    0    0 -0.54025671254E-01  0.75590383204E-02  0.50559612631E+01  0.50562654406E+01  0.10000000000E-01 0.  1.
</event>
<event>
 7   0  0.6206631E-02  0.9118800E+02  0.7818608E-02  0.1180000E+00
       11   -1    0    0    0    0  0.00000000000E+00  0.00000000000E+00  0.11999999989E+02  0.12000000000E+02  0.51109989000E-03 0. -1.
     -623   -1    0    0    0    0  0.00000000000E+00  0.00000000000E+00  0.42561509872E-11  0.25126700000E+02  0.25126700000E+02 0.  1.
      622    2    1    2    0    0 -0.81680677014E-02  0.62972679971E-02  0.11913144875E+02  0.11913555712E+02  0.98399775242E-01 0.  0.
       11    1    1    2    0    0  0.10138491375E-01  0.32609519250E-02  0.85782277845E-01  0.86442369416E-01  0.51109989000E-03 0. -1.
     -623    1    1    2    0    0 -0.19704236737E-02 -0.95582199221E-02  0.10728357686E-02  0.25126701918E+02  0.25126700000E+02 0.  1.
     -611    1    3    3    0    0 -0.44378124733E-02  0.51226704610E-01  0.58099815827E+01  0.58102177120E+01  0.10000000000E-01 0. -1.
      611    1    3    3    0    0 -0.37302552282E-02 -0.44929436613E-01  0.61031632928E+01  0.61033380004E+01  0.10000000000E-01 0.  1.
</event>
<event>
 7   0  0.6206631E-02  0.9118800E+02  0.7818608E-02  0.1180000E+00
       11   -1    0    0    0    0  0.00000000000E+00  0.00000000000E+00  0.11999999989E+02  0.12000000000E+02  0.51109989000E-03 0. -1.
     -623   -1    0    0    0    0  0.00000000000E+00  0.00000000000E+00  0.42561509872E-11  0.25126700000E+02  0.25126700000E+02 0.  1.
      622    2    1    2    0    0 -0.39609541873E-02  0.47656606094E-03  0.11922280384E+02  0.11922730925E+02  0.10357237185E+00 0.  0.
       11    1    1    2    0    0  0.83798018265E-02 -0.48170959612E-02  0.76659648831E-01  0.77268288930E-01  0.51109989000E-03 0. -1.
     -623    1    1    2    0    0 -0.44188476393E-02  0.43405299002E-02  0.10599559195E-02  0.25126700786E+02  0.25126700000E+02 0.  1.
     -611    1    3    3    0    0  0.42805953014E-01  0.82735668463E-02  0.83769913742E+01  0.83771107957E+01  0.10000000000E-01 0. -1.
      611    1    3    3    0    0 -0.46766907201E-01 -0.77970007853E-02  0.35452890102E+01  0.35456201295E+01  0.10000000000E-01 0.  1.
</event>
<event>
 7   0  0.6206631E-02  0.9118800E+02  0.7818608E-02  0.1180000E+00
       11   -1    0    0    0    0  0.00000000000E+00  0.00000000000E+00  0.11999999989E+02  0.12000000000E+02  0.51109989000E-03 0.  1.
     -623   -1    0    0    0    0  0.00000000000E+00  0.00000000000E+00  0.42561509872E-11  0.25126700000E+02  0.25126700000E+02 0. -1.
      622    2    1    2    0    0 -0.16249637298E-02  0.21724412805E-02  0.11908317837E+02  0.11908387499E+02  0.40641594058E-01 0.  0.
       11    1    1    2    0    0  0.18281030683E-02 -0.22253956213E-02  0.91565794081E-01  0.91612500322E-01  0.51109989000E-03 0.  1.
     -623    1    1    2    0    0 -0.20313933857E-03  0.52954340826E-04  0.11635766161E-03  0.25126700001E+02  0.25126700000E+02 0. -1.
     -611    1    3    3    0    0 -0.27077099371E-02  0.14380391626E-01  0.95580417955E+01  0.95580582281E+01  0.10000000000E-01 0.  1.
      611    1    3    3    0    0  0.10827462073E-02 -0.12207950345E-01  0.23502760419E+01  0.23503292704E+01  0.10000000000E-01 0. -1.
</event>
<event>
 7   0  0.6206631E-02  0.9118800E+02  0.7818608E-02  0.1180000E+00
       11   -1    0    0    0    0  0.00000000000E+00  0.00000000000E+00  0.11999999989E+02  0.12000000000E+02  0.51109989000E-03 0.  1.
     -623   -1    0    0    0    0  0.00000000000E+00  0.00000000000E+00  0.42561509872E-11  0.25126700000E+02  0.25126700000E+02 0. -1.
      622    2    1    2    0    0  0.36850395184E-01 -0.93788220073E-02  0.80174228302E+01  0.80176255923E+01  0.42489849734E-01 0.  0.
       11    1    1    2    0    0  0.86217667811E-01  0.89271220598E-01  0.39800112937E+01  0.39819458807E+01  0.51109989000E-03 0.  1.
     -623    1    1    2    0    0 -0.12306806300E+00 -0.79892398591E-01  0.25658653184E-02  0.25127128527E+02  0.25126700000E+02 0. -1.
     -611    1    3    3    0    0  0.32459200976E-01  0.94387867948E-02  0.48808811416E+01  0.48810084418E+01  0.10000000000E-01 0.  1.
      611    1    3    3    0    0  0.43911942086E-02 -0.18817608802E-01  0.31365416885E+01  0.31366171505E+01  0.10000000000E-01 0. -1.
</event>
<event>
 7   0  0.6206631E-02  0.9118800E+02  0.7818608E-02  0.1180000E+00
       11   -1    0    0    0    0  0.00000000000E+00  0.00000000000E+00  0.11999999989E+02  0.12000000000E+02  0.51109989000E-03 0.  1.
     -623   -1    0    0    0    0  0.00000000000E+00  0.00000000000E+00  0.42561509872E-11  0.25126700000E+02  0.25126700000E+02 0. -1.
      622    2    1    2    0    0 -0.35502314839E-01  0.14090938525E+00  0.68575509834E+01  0.68598804922E+01  0.10411055562E+00 0.  0.
       11    1    1    2    0    0  0.31563404048E-01 -0.13496537161E+00  0.51382489608E+01  0.51401181450E+01  0.51109989000E-03 0.  1.
     -623    1    1    2    0    0  0.39389107910E-02 -0.59440136378E-02  0.42000449067E-02  0.25126701363E+02  0.25126700000E+02 0. -1.
     -611    1    3    3    0    0  0.34475855999E-01  0.48931614201E-01  0.18852490794E+01  0.18862255906E+01  0.10000000000E-01 0.  1.
      611    1    3    3    0    0 -0.69978170838E-01  0.91977771049E-01  0.49723019040E+01  0.49736549015E+01  0.10000000000E-01 0. -1.
</event>
<event>
 7   0  0.6206631E-02  0.9118800E+02  0.7818608E-02  0.1180000E+00
       11   -1    0    0    0    0  0.00000000000E+00  0.00000000000E+00  0.11999999989E+02  0.12000000000E+02  0.51109989000E-03 0. -1.
     -623   -1    0    0    0    0  0.00000000000E+00  0.00000000000E+00  0.42561509872E-11  0.25126700000E+02  0.25126700000E+02 0.  1.
      622    2    1    2    0    0  0.20800809342E+00 -0.22189881836E+00  0.99002456702E+01  0.99056657888E+01  0.12183569383E+00 0.  0.
       11    1    1    2    0    0  0.57683350619E-01  0.17346919919E+00  0.20848791450E+01  0.20928784586E+01  0.51109989000E-03 0. -1.
     -623    1    1    2    0    0 -0.26569144403E+00  0.48429619171E-01  0.14875174015E-01  0.25128155753E+02  0.25126700000E+02 0.  1.
     -611    1    3    3    0    0  0.28875620858E-01  0.91584561411E-02  0.14700229507E+01  0.14703690538E+01  0.10000000000E-01 0. -1.
      611    1    3    3    0    0  0.17913247256E+00 -0.23105727450E+00  0.84302227195E+01  0.84352967349E+01  0.10000000000E-01 0.  1.
</event>
<event>
 7   0  0.6206631E-02  0.9118800E+02  0.7818608E-02  0.1180000E+00
       11   -1    0    0    0    0  0.00000000000E+00  0.00000000000E+00  0.11999999989E+02  0.12000000000E+02  0.51109989000E-03 0. -1.
     -623   -1    0    0    0    0  0.00000000000E+00  0.00000000000E+00  0.42561509872E-11  0.25126700000E+02  0.25126700000E+02 0. -1.
      622    2    1    2    0    0 -0.56743635203E-02  0.56853258191E-03  0.11987894034E+02  0.11988456608E+02  0.11599972614E+00 0.  0.
       11    1    1    2    0    0 -0.15395961895E-02 -0.52019989389E-03  0.11415935939E-01  0.11542347285E-01  0.51109989000E-03 0. -1.
     -623    1    1    2    0    0  0.72139597098E-02 -0.48332688020E-04  0.69001900476E-03  0.25126701045E+02  0.25126700000E+02 0. -1.
     -611    1    3    3    0    0  0.35245682482E-02  0.10854677062E-01  0.20894664962E+00  0.20949689492E+00  0.10000000000E-01 0.  1.
      611    1    3    3    0    0 -0.91989317685E-02 -0.10286144480E-01  0.11778947385E+02  0.11778959713E+02  0.10000000000E-01 0. -1.
</event>
<event>
 7   0  0.6206631E-02  0.9118800E+02  0.7818608E-02  0.1180000E+00
       11   -1    0    0    0    0  0.00000000000E+00  0.00000000000E+00  0.11999999989E+02  0.12000000000E+02  0.51109989000E-03 0. -1.
     -623   -1    0    0    0    0  0.00000000000E+00  0.00000000000E+00  0.42561509872E-11  0.25126700000E+02  0.25126700000E+02 0. -1.
      622    2    1    2    0    0 -0.12969410735E-01 -0.97621791604E-04  0.11394850281E+02  0.11395293825E+02  0.99700720824E-01 0.  0.
       11    1    1    2    0    0  0.12159269103E-01  0.35246064784E-02  0.60457317129E+00  0.60470592137E+00  0.51109989000E-03 0. -1.
     -623    1    1    2    0    0  0.81014163281E-03 -0.34269846868E-02  0.57653733189E-03  0.25126700253E+02  0.25126700000E+02 0. -1.
     -611    1    3    3    0    0  0.20903498247E-01 -0.11844569287E-01  0.89667978845E+00  0.89705735217E+00  0.10000000000E-01 0.  1.
      611    1    3    3    0    0 -0.33872908983E-01  0.11746947496E-01  0.10498170492E+02  0.10498236473E+02  0.10000000000E-01 0. -1.
</event>
<event>
 7   0  0.6206631E-02  0.9118800E+02  0.7818608E-02  0.1180000E+00
       11   -1    0    0    0    0  0.00000000000E+00  0.00000000000E+00  0.11999999989E+02  0.12000000000E+02  0.51109989000E-03 0. -1.
     -623   -1    0    0    0    0  0.00000000000E+00  0.00000000000E+00  0.42561509872E-11  0.25126700000E+02  0.25126700000E+02 0.  1.
      622    2    1    2    0    0 -0.17992801125E-01 -0.57572301313E-01  0.99129371619E+01  0.99134728018E+01  0.83555410920E-01 0.  0.
       11    1    1    2    0    0  0.15523202631E-01  0.43588221434E-01  0.20860100065E+01  0.20865231634E+01  0.51109989000E-03 0. -1.
     -623    1    1    2    0    0  0.24695984937E-02  0.13984079879E-01  0.10528207464E-02  0.25126704035E+02  0.25126700000E+02 0.  1.
     -611    1    3    3    0    0 -0.18164825546E-01 -0.35526014641E-01  0.92534877524E+01  0.92535791801E+01  0.10000000000E-01 0. -1.
      611    1    3    3    0    0  0.17202442125E-03 -0.22046286672E-01  0.65944940948E+00  0.65989362174E+00  0.10000000000E-01 0. -1.
</event>
<event>
 7   0  0.6206631E-02  0.9118800E+02  0.7818608E-02  0.1180000E+00
       11   -1    0    0    0    0  0.00000000000E+00  0.00000000000E+00  0.11999999989E+02  0.12000000000E+02  0.51109989000E-03 0. -1.
     -623   -1    0    0    0    0  0.00000000000E+00  0.00000000000E+00  0.42561509872E-11  0.25126700000E+02  0.25126700000E+02 0. -1.
      622    2    1    2    0    0  0.69422618127E-01  0.27718112380E-01  0.11404295397E+02  0.11404935454E+02  0.94928439281E-01 0.  0.
       11    1    1    2    0    0 -0.69121872125E-01 -0.30819748572E-01  0.59023124572E+00  0.59506375688E+00  0.51109989000E-03 0. -1.
     -623    1    1    2    0    0 -0.30074600140E-03  0.31016361927E-02  0.54733463980E-02  0.25126700789E+02  0.25126700000E+02 0. -1.
     -611    1    3    3    0    0  0.11950245413E-01  0.14089482554E-01  0.84823187219E+01  0.84823447361E+01  0.10000000000E-01 0.  1.
      611    1    3    3    0    0  0.57472372714E-01  0.13628629826E-01  0.29219766751E+01  0.29225907176E+01  0.10000000000E-01 0. -1.
</event>
<event>
 7   0  0.6206631E-02  0.9118800E+02  0.7818608E-02  0.1180000E+00
       11   -1    0    0    0    0  0.00000000000E+00  0.00000000000E+00  0.11999999989E+02  0.12000000000E+02  0.51109989000E-03 0. -1.
     -623   -1    0    0    0    0  0.00000000000E+00  0.00000000000E+00  0.42561509872E-11  0.25126700000E+02  0.25126700000E+02 0.  1.
      622    2    1    2    0    0 -0.15218935855E-02 -0.44393725842E-03  0.11996339740E+02  0.11997220121E+02  0.14533046473E+00 0.  0.
       11    1    1    2    0    0  0.14618828019E-02 -0.22719192326E-02 -0.40637742225E-03  0.27794035442E-02  0.51109989000E-03 0. -1.
     -623    1    1    2    0    0  0.60010783530E-04  0.27158564911E-02  0.40666263042E-02  0.25126700476E+02  0.25126700000E+02 0.  1.
     -611    1    3    3    0    0  0.32804995192E-01  0.23947098594E-01  0.10825321662E+02  0.10825402474E+02  0.10000000000E-01 0. -1.
      611    1    3    3    0    0 -0.34326888778E-01 -0.24391035853E-01  0.11710180781E+01  0.11718176468E+01  0.10000000000E-01 0.  1.
</event>
<event>
 7   0  0.6206631E-02  0.9118800E+02  0.7818608E-02  0.1180000E+00
       11   -1    0    0    0    0  0.00000000000E+00  0.00000000000E+00  0.11999999989E+02  0.12000000000E+02  0.51109989000E-03 0. -1.
     -623   -1    0    0    0    0  0.00000000000E+00  0.00000000000E+00  0.42561509872E-11  0.25126700000E+02  0.25126700000E+02 0. -1.
      622    2    1    2    0    0  0.14682870472E-02 -0.77511139113E-01  0.95538136428E+01  0.95542899705E+01  0.55602028925E-01 0.  0.
       11    1    1    2    0    0 -0.12036515957E-01  0.83207495679E-01  0.24442615515E+01  0.24457070876E+01  0.51109989000E-03 0. -1.
     -623    1    1    2    0    0  0.10568228910E-01 -0.56963565663E-02  0.19247947967E-02  0.25126702942E+02  0.25126700000E+02 0. -1.
     -611    1    3    3    0    0  0.16130761676E-01 -0.49409495865E-01  0.76739326722E+01  0.76741152036E+01  0.10000000000E-01 0. -1.
      611    1    3    3    0    0 -0.14662474629E-01 -0.28101643247E-01  0.18798809706E+01  0.18801747669E+01  0.10000000000E-01 0.  1.
</event>
<event>
 7   0  0.6206631E-02  0.9118800E+02  0.7818608E-02  0.1180000E+00
       11   -1    0    0    0    0  0.00000000000E+00  0.00000000000E+00  0.11999999989E+02  0.12000000000E+02  0.51109989000E-03 0. -1.
     -623   -1    0    0    0    0  0.00000000000E+00  0.00000000000E+00  0.42561509872E-11  0.25126700000E+02  0.25126700000E+02 0. -1.
      622    2    1    2    0    0  0.12684653890E+00 -0.39040161506E-01  0.89389449689E+01  0.89405029595E+01  0.10120194777E+00 0.  0.
       11    1    1    2    0    0 -0.11860131644E+00  0.50619344143E-01  0.30567738637E+01  0.30594926549E+01  0.51109989000E-03 0. -1.
     -623    1    1    2    0    0 -0.82452224566E-02 -0.11579182637E-01  0.42811565260E-02  0.25126704386E+02  0.25126700000E+02 0. -1.
     -611    1    3    3    0    0  0.14012596686E+00 -0.22685809447E-01  0.72439113141E+01  0.72453089002E+01  0.10000000000E-01 0. -1.
      611    1    3    3    0    0 -0.13279427961E-01 -0.16354352058E-01  0.16950336547E+01  0.16951940593E+01  0.10000000000E-01 0.  1.
</event>
<event>
 7   0  0.6206631E-02  0.9118800E+02  0.7818608E-02  0.1180000E+00
       11   -1    0    0    0    0  0.00000000000E+00  0.00000000000E+00  0.11999999989E+02  0.12000000000E+02  0.51109989000E-03 0. -1.
     -623   -1    0    0    0    0  0.00000000000E+00  0.00000000000E+00  0.42561509872E-11  0.25126700000E+02  0.25126700000E+02 0. -1.
      622    2    1    2    0    0  0.69302834333E-03 -0.74348076340E-03  0.11996636705E+02  0.11996934750E+02  0.84558360059E-01 0.  0.
       11    1    1    2    0    0 -0.93096671945E-03  0.37676065552E-03  0.28505847000E-02  0.30652412443E-02  0.51109989000E-03 0. -1.
     -623    1    1    2    0    0  0.23793837612E-03  0.36672010788E-03  0.51269908511E-03  0.25126700009E+02  0.25126700000E+02 0. -1.
     -611    1    3    3    0    0  0.30337711180E-01 -0.76742469931E-02  0.98879894037E+01  0.98880439784E+01  0.10000000000E-01 0. -1.
      611    1    3    3    0    0 -0.29644682837E-01  0.69307662297E-02  0.21086473016E+01  0.21088907713E+01  0.10000000000E-01 0.  1.
</event>
<event>
 7   0  0.6206631E-02  0.9118800E+02  0.7818608E-02  0.1180000E+00
       11   -1    0    0    0    0  0.00000000000E+00  0.00000000000E+00  0.11999999989E+02  0.12000000000E+02  0.51109989000E-03 0. -1.
     -623   -1    0    0    0    0  0.00000000000E+00  0.00000000000E+00  0.42561509872E-11  0.25126700000E+02  0.25126700000E+02 0.  1.
      622    2    1    2    0    0 -0.15835947790E-01  0.26420565260E-02  0.11638343462E+02  0.11638737738E+02  0.94444831299E-01 0.  0.
       11    1    1    2    0    0  0.13393967568E-01  0.34800777510E-03  0.36101304871E+00  0.36126195764E+00  0.51109989000E-03 0. -1.
     -623    1    1    2    0    0  0.24419802220E-02 -0.29900643011E-02  0.64347840708E-03  0.25126700305E+02  0.25126700000E+02 0.  1.
     -611    1    3    3    0    0  0.95549929475E-05  0.31831191185E-02  0.11187312138E+02  0.11187317061E+02  0.10000000000E-01 0. -1.
      611    1    3    3    0    0 -0.15845502783E-01 -0.54106259251E-03  0.45103132367E+00  0.45142067701E+00  0.10000000000E-01 0. -1.
</event>
<event>
 7   0  0.6206631E-02  0.9118800E+02  0.7818608E-02  0.1180000E+00
       11   -1    0    0    0    0  0.00000000000E+00  0.00000000000E+00  0.11999999989E+02  0.12000000000E+02  0.51109989000E-03 0.  1.
     -623   -1    0    0    0    0  0.00000000000E+00  0.00000000000E+00  0.42561509872E-11  0.25126700000E+02  0.25126700000E+02 0.  1.
      622    2    1    2    0    0 -0.12778020280E-01  0.64716853816E-02  0.11087541672E+02  0.11088006962E+02  0.10056295477E+00 0.  0.
       11    1    1    2    0    0  0.12445667685E-01 -0.52078852437E-02  0.91189305826E+00  0.91199299759E+00  0.51109989000E-03 0.  1.
     -623    1    1    2    0    0  0.33235259441E-03 -0.12638001379E-02  0.56525911297E-03  0.25126700040E+02  0.25126700000E+02 0.  1.
     -611    1    3    3    0    0 -0.32637771843E-01  0.45290533270E-01  0.59203110190E+01  0.59205826587E+01  0.10000000000E-01 0.  1.
      611    1    3    3    0    0  0.19859751563E-01 -0.38818847888E-01  0.51672306527E+01  0.51674243034E+01  0.10000000000E-01 0. -1.
</event>
<event>
 7   0  0.6206631E-02  0.9118800E+02  0.7818608E-02  0.1180000E+00
       11   -1    0    0    0    0  0.00000000000E+00  0.00000000000E+00  0.11999999989E+02  0.12000000000E+02  0.51109989000E-03 0. -1.
     -623   -1    0    0    0    0  0.00000000000E+00  0.00000000000E+00  0.42561509872E-11  0.25126700000E+02  0.25126700000E+02 0. -1.
      622    2    1    2    0    0 -0.76176298972E-02 -0.86137873964E-02  0.72624265310E+01  0.72629901824E+01  0.89749906214E-01 0.  0.
       11    1    1    2    0    0  0.71586018522E-02  0.82520372471E-02  0.47369971799E+01  0.47370098042E+01  0.51109989000E-03 0. -1.
     -623    1    1    2    0    0  0.45902804499E-03  0.36175014931E-03  0.57627823561E-03  0.25126700013E+02  0.25126700000E+02 0. -1.
     -611    1    3    3    0    0 -0.18086254897E-01  0.14447521622E-01  0.62583086778E+00  0.62633866124E+00  0.10000000000E-01 0.  1.
      611    1    3    3    0    0  0.10468624999E-01 -0.23061309019E-01  0.66365956632E+01  0.66366515212E+01  0.10000000000E-01 0. -1.
</event>
<event>
 7   0  0.6206631E-02  0.9118800E+02  0.7818608E-02  0.1180000E+00
       11   -1    0    0    0    0  0.00000000000E+00  0.00000000000E+00  0.11999999989E+02  0.12000000000E+02  0.51109989000E-03 0.  1.
     -623   -1    0    0    0    0  0.00000000000E+00  0.00000000000E+00  0.42561509872E-11  0.25126700000E+02  0.25126700000E+02 0. -1.
      622    2    1    2    0    0  0.15789172763E+00  0.12468125674E+00  0.11163662064E+02  0.11166670924E+02  0.16344301821E+00 0.  0.
       11    1    1    2    0    0 -0.81209456160E-01 -0.91492339385E-01  0.82415703375E+00  0.83318719471E+00  0.51109989000E-03 0.  1.
     -623    1    1    2    0    0 -0.76682271470E-01 -0.33188917360E-01  0.12180891069E-01  0.25126841882E+02  0.25126700000E+02 0. -1.
     -611    1    3    3    0    0  0.11593011729E+00 -0.92621294283E-02  0.44217710115E+01  0.44233114809E+01  0.10000000000E-01 0. -1.
      611    1    3    3    0    0  0.41961610335E-01  0.13394338617E+00  0.67418910528E+01  0.67433594429E+01  0.10000000000E-01 0.  1.
</event>
<event>
 7   0  0.6206631E-02  0.9118800E+02  0.7818608E-02  0.1180000E+00
       11   -1    0    0    0    0  0.00000000000E+00  0.00000000000E+00  0.11999999989E+02  0.12000000000E+02  0.51109989000E-03 0. -1.
     -623   -1    0    0    0    0  0.00000000000E+00  0.00000000000E+00  0.42561509872E-11  0.25126700000E+02  0.25126700000E+02 0.  1.
      622    2    1    2    0    0 -0.30150866570E-02 -0.30395120099E-02  0.11967937374E+02  0.11968264644E+02  0.88404040441E-01 0.  0.
       11    1    1    2    0    0  0.24915745607E-02  0.31962349962E-02  0.31471366104E-01  0.31735342594E-01  0.51109989000E-03 0. -1.
     -623    1    1    2    0    0  0.52351209639E-03 -0.15672298631E-03  0.59124863012E-03  0.25126700013E+02  0.25126700000E+02 0.  1.
     -611    1    3    3    0    0  0.17041806655E-01 -0.34569822877E-01  0.32883951343E+01  0.32886361999E+01  0.10000000000E-01 0. -1.
      611    1    3    3    0    0 -0.20056893312E-01  0.31530310867E-01  0.86795422401E+01  0.86796284446E+01  0.10000000000E-01 0.  1.
</event>
<event>
 7   0  0.6206631E-02  0.9118800E+02  0.7818608E-02  0.1180000E+00
       11   -1    0    0    0    0  0.00000000000E+00  0.00000000000E+00  0.11999999989E+02  0.12000000000E+02  0.51109989000E-03 0. -1.
     -623   -1    0    0    0    0  0.00000000000E+00  0.00000000000E+00  0.42561509872E-11  0.25126700000E+02  0.25126700000E+02 0.  1.
      622    2    1    2    0    0  0.22543380877E-01 -0.69507590306E-02  0.11928132824E+02  0.11928569688E+02  0.99325852013E-01 0.  0.
       11    1    1    2    0    0 -0.24591682704E-01  0.11886783265E-01  0.65998504695E-01  0.71429057950E-01  0.51109989000E-03 0. -1.
     -623    1    1    2    0    0  0.20483018266E-02 -0.49360242345E-02  0.58686603557E-02  0.25126701254E+02  0.25126700000E+02 0.  1.
     -611    1    3    3    0    0  0.85760747991E-02 -0.37443628841E-01  0.21032260818E+01  0.21036006098E+01  0.10000000000E-01 0.  1.
      611    1    3    3    0    0  0.13967306078E-01  0.30492869810E-01  0.98249067423E+01  0.98249690786E+01  0.10000000000E-01 0. -1.
</event>
<event>
 7   0  0.6206631E-02  0.9118800E+02  0.7818608E-02  0.1180000E+00
       11   -1    0    0    0    0  0.00000000000E+00  0.00000000000E+00  0.11999999989E+02  0.12000000000E+02  0.51109989000E-03 0.  1.
     -623   -1    0    0    0    0  0.00000000000E+00  0.00000000000E+00  0.42561509872E-11  0.25126700000E+02  0.25126700000E+02 0. -1.
      622    2    1    2    0    0 -0.49550018371E-01  0.24593449770E-01  0.11424733839E+02  0.11426182369E+02  0.17332107952E+00 0.  0.
       11    1    1    2    0    0  0.49373006408E-01  0.35620599395E-01  0.57050554565E+00  0.57374503022E+00  0.51109989000E-03 0.  1.
     -623    1    1    2    0    0  0.17701196380E-03 -0.60214049165E-01  0.47606042202E-02  0.25126772600E+02  0.25126700000E+02 0. -1.
     -611    1    3    3    0    0 -0.55776983754E-01 -0.14293276011E-01  0.10785574426E+02  0.10785732755E+02  0.10000000000E-01 0.  1.
      611    1    3    3    0    0  0.62269653829E-02  0.38886725781E-01  0.63915941336E+00  0.64044961412E+00  0.10000000000E-01 0.  1.
</event>
<event>
 7   0  0.6206631E-02  0.9118800E+02  0.7818608E-02  0.1180000E+00
       11   -1    0    0    0    0  0.00000000000E+00  0.00000000000E+00  0.11999999989E+02  0.12000000000E+02  0.51109989000E-03 0. -1.
     -623   -1    0    0    0    0  0.00000000000E+00  0.00000000000E+00  0.42561509872E-11  0.25126700000E+02  0.25126700000E+02 0. -1.
      622    2    1    2    0    0  0.24544960156E-02 -0.38792376270E-01  0.11944986313E+02  0.11946187010E+02  0.16484892578E+00 0.  0.
       11    1    1    2    0    0  0.46858846316E-01  0.17000950756E-01  0.20048847673E-01  0.53730822819E-01  0.51109989000E-03 0. -1.
     -623    1    1    2    0    0 -0.49313342331E-01  0.21791425514E-01  0.34964828142E-01  0.25126782168E+02  0.25126700000E+02 0. -1.
     -611    1    3    3    0    0  0.80220387128E-01 -0.21640506751E-01  0.75883609806E+01  0.75888224379E+01  0.10000000000E-01 0. -1.
      611    1    3    3    0    0 -0.77765891112E-01 -0.17151869519E-01  0.43566253327E+01  0.43573645716E+01  0.10000000000E-01 0.  1.
</event>
<event>
 7   0  0.6206631E-02  0.9118800E+02  0.7818608E-02  0.1180000E+00
       11   -1    0    0    0    0  0.00000000000E+00  0.00000000000E+00  0.11999999989E+02  0.12000000000E+02  0.51109989000E-03 0. -1.
     -623   -1    0    0    0    0  0.00000000000E+00  0.00000000000E+00  0.42561509872E-11  0.25126700000E+02  0.25126700000E+02 0. -1.
      622    2    1    2    0    0 -0.33955435011E-02 -0.45076513728E-02  0.84325535734E+01  0.84328322142E+01  0.68319362415E-01 0.  0.
       11    1    1    2    0    0  0.35096708993E-02  0.44232734347E-02  0.35671632782E+01  0.35671677838E+01  0.51109989000E-03 0. -1.
     -623    1    1    2    0    0 -0.11412739817E-03  0.84377938190E-04  0.28313746492E-03  0.25126700002E+02  0.25126700000E+02 0. -1.
     -611    1    3    3    0    0  0.19201825109E-01 -0.59514127332E-02  0.71745517469E+01  0.71745868800E+01  0.10000000000E-01 0. -1.
      611    1    3    3    0    0 -0.22597368610E-01  0.14437613604E-02  0.12580018265E+01  0.12582453342E+01  0.10000000000E-01 0.  1.
</event>
<event>
 7   0  0.6206631E-02  0.9118800E+02  0.7818608E-02  0.1180000E+00
       11   -1    0    0    0    0  0.00000000000E+00  0.00000000000E+00  0.11999999989E+02  0.12000000000E+02  0.51109989000E-03 0.  1.
     -623   -1    0    0    0    0  0.00000000000E+00  0.00000000000E+00  0.42561509872E-11  0.25126700000E+02  0.25126700000E+02 0.  1.
      622    2    1    2    0    0 -0.11181509222E-01  0.36103896967E-01  0.11791095690E+02  0.11791662133E+02  0.10922349502E+00 0.  0.
       11    1    1    2    0    0  0.19095551890E-01 -0.37261425285E-01  0.20408485676E+00  0.20833613201E+00  0.51109989000E-03 0.  1.
     -623    1    1    2    0    0 -0.79140426684E-02  0.11575283176E-02  0.48194426037E-02  0.25126701735E+02  0.25126700000E+02 0.  1.
     -611    1    3    3    0    0  0.39788444527E-01  0.84333391903E-02  0.22820530586E+01  0.22824373822E+01  0.10000000000E-01 0. -1.
      611    1    3    3    0    0 -0.50969953749E-01  0.27670557777E-01  0.95090426312E+01  0.95092247506E+01  0.10000000000E-01 0.  1.
</event>
<event>
 7   0  0.6206631E-02  0.9118800E+02  0.7818608E-02  0.1180000E+00
       11   -1    0    0    0    0  0.00000000000E+00  0.00000000000E+00  0.11999999989E+02  0.12000000000E+02  0.51109989000E-03 0. -1.
     -623   -1    0    0    0    0  0.00000000000E+00  0.00000000000E+00  0.42561509872E-11  0.25126700000E+02  0.25126700000E+02 0. -1.
      622    2    1    2    0    0 -0.44812839681E-02  0.42955232962E-02  0.95997313573E+01  0.95998771769E+01  0.52546610104E-01 0.  0.
       11    1    1    2    0    0  0.10536070633E-01  0.44920602156E-03  0.24000984227E+01  0.24001216450E+01  0.51109989000E-03 0. -1.
     -623    1    1    2    0    0 -0.60547866648E-02 -0.47447293177E-02  0.17020903455E-03  0.25126701178E+02  0.25126700000E+02 0. -1.
     -611    1    3    3    0    0  0.39323496199E-02  0.14907446951E-01  0.84742431657E+01  0.84742630905E+01  0.10000000000E-01 0. -1.
      611    1    3    3    0    0 -0.84136335881E-02 -0.10611923655E-01  0.11254881916E+01  0.11256140865E+01  0.10000000000E-01 0.  1.
</event>
<event>
 7   0  0.6206631E-02  0.9118800E+02  0.7818608E-02  0.1180000E+00
       11   -1    0    0    0    0  0.00000000000E+00  0.00000000000E+00  0.11999999989E+02  0.12000000000E+02  0.51109989000E-03 0.  1.
     -623   -1    0    0    0    0  0.00000000000E+00  0.00000000000E+00  0.42561509872E-11  0.25126700000E+02  0.25126700000E+02 0. -1.
      622    2    1    2    0    0 -0.12724344895E-01 -0.64262293975E-02  0.11711324784E+02  0.11711991749E+02  0.12417459132E+00 0.  0.
       11    1    1    2    0    0  0.86057517418E-02  0.46601745733E-02  0.28784106169E+00  0.28800783706E+00  0.51109989000E-03 0.  1.
     -623    1    1    2    0    0  0.41185931532E-02  0.17660548242E-02  0.83414303954E-03  0.25126700413E+02  0.25126700000E+02 0. -1.
     -611    1    3    3    0    0  0.50354775653E-01 -0.19586110625E-01  0.37861123397E+01  0.37865110416E+01  0.10000000000E-01 0.  1.
      611    1    3    3    0    0 -0.63079120548E-01  0.13159881227E-01  0.79252124446E+01  0.79254807079E+01  0.10000000000E-01 0. -1.
</event>
<event>
 7   0  0.6206631E-02  0.9118800E+02  0.7818608E-02  0.1180000E+00
       11   -1    0    0    0    0  0.00000000000E+00  0.00000000000E+00  0.11999999989E+02  0.12000000000E+02  0.51109989000E-03 0.  1.
     -623   -1    0    0    0    0  0.00000000000E+00  0.00000000000E+00  0.42561509872E-11  0.25126700000E+02  0.25126700000E+02 0.  1.
      622    2    1    2    0    0 -0.15166025405E-01  0.23803712005E-02  0.10511518649E+02  0.10511960483E+02  0.95148280811E-01 0.  0.
       11    1    1    2    0    0  0.93201855620E-02 -0.12432054263E-01  0.14879556104E+01  0.14880368213E+01  0.51109989000E-03 0.  1.
     -623    1    1    2    0    0  0.58458398425E-02  0.10051683063E-01  0.52572923978E-03  0.25126702696E+02  0.25126700000E+02 0.  1.
     -611    1    3    3    0    0 -0.20495404215E-01 -0.20602753473E-01  0.96763701293E+01  0.96764189355E+01  0.10000000000E-01 0.  1.
      611    1    3    3    0    0  0.53293788101E-02  0.22983124673E-01  0.83514852011E+00  0.83554154711E+00  0.10000000000E-01 0. -1.
</event>
<event>
 7   0  0.6206631E-02  0.9118800E+02  0.7818608E-02  0.1180000E+00
       11   -1    0    0    0    0  0.00000000000E+00  0.00000000000E+00  0.11999999989E+02  0.12000000000E+02  0.51109989000E-03 0.  1.
     -623   -1    0    0    0    0  0.00000000000E+00  0.00000000000E+00  0.42561509872E-11  0.25126700000E+02  0.25126700000E+02 0. -1.
      622    2    1    2    0    0 -0.58921668869E-02  0.20704066249E-02  0.11811308122E+02  0.11811742393E+02  0.10109293925E+00 0.  0.
       11    1    1    2    0    0 -0.54178463049E-03  0.45320927702E-02  0.18819987658E+00  0.18825591136E+00  0.51109989000E-03 0.  1.
     -623    1    1    2    0    0  0.64339515174E-02 -0.66024993951E-02  0.49199011138E-03  0.25126701696E+02  0.25126700000E+02 0. -1.
     -611    1    3    3    0    0 -0.46907121306E-01  0.23270355962E-01  0.55471174868E+01  0.55473736308E+01  0.10000000000E-01 0.  1.
      611    1    3    3    0    0  0.41014954419E-01 -0.21199949337E-01  0.62641906356E+01  0.62643687618E+01  0.10000000000E-01 0. -1.
</event>
<event>
 7   0  0.6206631E-02  0.9118800E+02  0.7818608E-02  0.1180000E+00
       11   -1    0    0    0    0  0.00000000000E+00  0.00000000000E+00  0.11999999989E+02  0.12000000000E+02  0.51109989000E-03 0. -1.
     -623   -1    0    0    0    0  0.00000000000E+00  0.00000000000E+00  0.42561509872E-11  0.25126700000E+02  0.25126700000E+02 0. -1.
      622    2    1    2    0    0  0.70052475785E-04 -0.26341650358E-02  0.11995970056E+02  0.11996287400E+02  0.87217275433E-01 0.  0.
       11    1    1    2    0    0  0.14029725611E-02 -0.41041022018E-03  0.33739670266E-02  0.37123638304E-02  0.51109989000E-03 0. -1.
     -623    1    1    2    0    0 -0.14730250369E-02  0.30445752560E-02  0.65596603063E-03  0.25126700236E+02  0.25126700000E+02 0. -1.
     -611    1    3    3    0    0 -0.41358438928E-01 -0.47552398436E-02  0.48053781750E+01  0.48055689088E+01  0.10000000000E-01 0. -1.
      611    1    3    3    0    0  0.41428491404E-01  0.21210748078E-02  0.71905918811E+01  0.71907184912E+01  0.10000000000E-01 0.  1.
</event>
<event>
 7   0  0.6206631E-02  0.9118800E+02  0.7818608E-02  0.1180000E+00
       11   -1    0    0    0    0  0.00000000000E+00  0.00000000000E+00  0.11999999989E+02  0.12000000000E+02  0.51109989000E-03 0. -1.
     -623   -1    0    0    0    0  0.00000000000E+00  0.00000000000E+00  0.42561509872E-11  0.25126700000E+02  0.25126700000E+02 0. -1.
      622    2    1    2    0    0  0.18309288793E-02 -0.11523998178E-02  0.11996327473E+02  0.11996919155E+02  0.11912886347E+00 0.  0.
       11    1    1    2    0    0  0.10957183006E-02 -0.17398856335E-02  0.22361243773E-02  0.30804668463E-02  0.51109989000E-03 0. -1.
     -623    1    1    2    0    0 -0.29266471799E-02  0.28922854512E-02  0.14363913112E-02  0.25126700378E+02  0.25126700000E+02 0. -1.
     -611    1    3    3    0    0 -0.31214209343E-01 -0.35655540200E-01  0.25164186118E+01  0.25168846366E+01  0.10000000000E-01 0. -1.
      611    1    3    3    0    0  0.33045138223E-01  0.34503140383E-01  0.94799088616E+01  0.94800345186E+01  0.10000000000E-01 0. -1.
</event>
<event>
 7   0  0.6206631E-02  0.9118800E+02  0.7818608E-02  0.1180000E+00
       11   -1    0    0    0    0  0.00000000000E+00  0.00000000000E+00  0.11999999989E+02  0.12000000000E+02  0.51109989000E-03 0.  1.
     -623   -1    0    0    0    0  0.00000000000E+00  0.00000000000E+00  0.42561509872E-11  0.25126700000E+02  0.25126700000E+02 0.  1.
      622    2    1    2    0    0 -0.49686397462E-01 -0.15930344401E+00  0.10606336721E+02  0.10608058608E+02  0.93179736558E-01 0.  0.
       11    1    1    2    0    0  0.47696842568E-01  0.15232836437E+00  0.13827552754E+01  0.13919379772E+01  0.51109989000E-03 0.  1.
     -623    1    1    2    0    0  0.19895548944E-02  0.69750796345E-02  0.10907992324E-01  0.25126703415E+02  0.25126700000E+02 0.  1.
     -611    1    3    3    0    0 -0.64107234597E-01 -0.15201415380E+00  0.10121857253E+02  0.10123206621E+02  0.10000000000E-01 0.  1.
      611    1    3    3    0    0  0.14420837135E-01 -0.72892902044E-02  0.48447946852E+00  0.48485198743E+00  0.10000000000E-01 0. -1.
</event>
<event>
 7   0  0.6206631E-02  0.9118800E+02  0.7818608E-02  0.1180000E+00
       11   -1    0    0    0    0  0.00000000000E+00  0.00000000000E+00  0.11999999989E+02  0.12000000000E+02  0.51109989000E-03 0.  1.
     -623   -1    0    0    0    0  0.00000000000E+00  0.00000000000E+00  0.42561509872E-11  0.25126700000E+02  0.25126700000E+02 0.  1.
      622    2    1    2    0    0  0.32345221795E-02 -0.58561069933E-02  0.11939390732E+02  0.11939685582E+02  0.83642116243E-01 0.  0.
       11    1    1    2    0    0 -0.72141625354E-02  0.78815516325E-02  0.59357839791E-01  0.60313989795E-01  0.51109989000E-03 0.  1.
     -623    1    1    2    0    0  0.39796403559E-02 -0.20254446392E-02  0.12514176652E-02  0.25126700428E+02  0.25126700000E+02 0.  1.
     -611    1    3    3    0    0  0.22609833053E-01  0.31775170229E-01  0.61057764539E+01  0.61059091846E+01  0.10000000000E-01 0. -1.
      611    1    3    3    0    0 -0.19375310873E-01 -0.37631277222E-01  0.58336142778E+01  0.58337763977E+01  0.10000000000E-01 0.  1.
</event>
<event>
 7   0  0.6206631E-02  0.9118800E+02  0.7818608E-02  0.1180000E+00
       11   -1    0    0    0    0  0.00000000000E+00  0.00000000000E+00  0.11999999989E+02  0.12000000000E+02  0.51109989000E-03 0.  1.
     -623   -1    0    0    0    0  0.00000000000E+00  0.00000000000E+00  0.42561509872E-11  0.25126700000E+02  0.25126700000E+02 0. -1.
      622    2    1    2    0    0  0.18075233664E-01  0.15120160752E-01  0.11870571203E+02  0.11871111113E+02  0.11073864245E+00 0.  0.
       11    1    1    2    0    0 -0.16486183912E-01 -0.10604782456E-01  0.12738794836E+00  0.12888834812E+00  0.51109989000E-03 0.  1.
     -623    1    1    2    0    0 -0.15890497524E-02 -0.45153782964E-02  0.20408380858E-02  0.25126700539E+02  0.25126700000E+02 0. -1.
     -611    1    3    3    0    0  0.61633123216E-01 -0.21347676400E-02  0.79891960137E+01  0.79894402898E+01  0.10000000000E-01 0.  1.
      611    1    3    3    0    0 -0.43557889552E-01  0.17254928392E-01  0.38813751890E+01  0.38816708232E+01  0.10000000000E-01 0. -1.
</event>
<event>
 7   0  0.6206631E-02  0.9118800E+02  0.7818608E-02  0.1180000E+00
       11   -1    0    0    0    0  0.00000000000E+00  0.00000000000E+00  0.11999999989E+02  0.12000000000E+02  0.51109989000E-03 0. -1.
     -623   -1    0    0    0    0  0.00000000000E+00  0.00000000000E+00  0.42561509872E-11  0.25126700000E+02  0.25126700000E+02 0.  1.
      622    2    1    2    0    0 -0.42042509707E-02  0.33174393851E-01  0.11656707071E+02  0.11657191294E+02  0.10085093177E+00 0.  0.
       11    1    1    2    0    0  0.27975089744E-01 -0.68907148148E-01  0.33460512487E+00  0.34277055230E+00  0.51109989000E-03 0. -1.
     -623    1    1    2    0    0 -0.23770838774E-01  0.35732754297E-01  0.86877933959E-02  0.25126738154E+02  0.25126700000E+02 0.  1.
     -611    1    3    3    0    0 -0.27511029145E-02  0.66637422588E-01  0.90269328579E+01  0.90271847736E+01  0.10000000000E-01 0. -1.
      611    1    3    3    0    0 -0.14531480562E-02 -0.33463028737E-01  0.26297742129E+01  0.26300065203E+01  0.10000000000E-01 0.  1.
</event>
<event>
 7   0  0.6206631E-02  0.9118800E+02  0.7818608E-02  0.1180000E+00
       11   -1    0    0    0    0  0.00000000000E+00  0.00000000000E+00  0.11999999989E+02  0.12000000000E+02  0.51109989000E-03 0. -1.
     -623   -1    0    0    0    0  0.00000000000E+00  0.00000000000E+00  0.42561509872E-11  0.25126700000E+02  0.25126700000E+02 0.  1.
      622    2    1    2    0    0  0.59989686508E-02 -0.34305044843E-02  0.11853723913E+02  0.11854229202E+02  0.10923181489E+00 0.  0.
       11    1    1    2    0    0 -0.78600601721E-03  0.11590638041E-03  0.14576697273E+00  0.14577003397E+00  0.51109989000E-03 0. -1.
     -623    1    1    2    0    0 -0.52129626335E-02  0.33145981039E-02  0.50910294217E-03  0.25126700765E+02  0.25126700000E+02 0.  1.
     -611    1    3    3    0    0 -0.66731476994E-02 -0.21234260349E-01  0.62053682914E+00  0.62101640963E+00  0.10000000000E-01 0.  1.
      611    1    3    3    0    0  0.12672116350E-01  0.17803755864E-01  0.11233187084E+02  0.11233212792E+02  0.10000000000E-01 0. -1.
</event>
<event>
 7   0  0.6206631E-02  0.9118800E+02  0.7818608E-02  0.1180000E+00
       11   -1    0    0    0    0  0.00000000000E+00  0.00000000000E+00  0.11999999989E+02  0.12000000000E+02  0.51109989000E-03 0.  1.
     -623   -1    0    0    0    0  0.00000000000E+00  0.00000000000E+00  0.42561509872E-11  0.25126700000E+02  0.25126700000E+02 0. -1.
      622    2    1    2    0    0 -0.31797064830E-02 -0.35967691680E-01  0.11390062752E+02  0.11390514912E+02  0.94850834988E-01 0.  0.
       11    1    1    2    0    0  0.39418595113E-02  0.34772573053E-01  0.60847928529E+00  0.60948500552E+00  0.51109989000E-03 0.  1.
     -623    1    1    2    0    0 -0.76215302823E-03  0.11951186270E-02  0.14579516328E-02  0.25126700082E+02  0.25126700000E+02 0. -1.
     -611    1    3    3    0    0 -0.27203364720E-01  0.22944229353E-01  0.38879487095E+01  0.38881244358E+01  0.10000000000E-01 0.  1.
      611    1    3    3    0    0  0.24023658237E-01 -0.58911921032E-01  0.75021140427E+01  0.75023904764E+01  0.10000000000E-01 0. -1.
</event>
<event>
 7   0  0.6206631E-02  0.9118800E+02  0.7818608E-02  0.1180000E+00
       11   -1    0    0    0    0  0.00000000000E+00  0.00000000000E+00  0.11999999989E+02  0.12000000000E+02  0.51109989000E-03 0. -1.
     -623   -1    0    0    0    0  0.00000000000E+00  0.00000000000E+00  0.42561509872E-11  0.25126700000E+02  0.25126700000E+02 0.  1.
      622    2    1    2    0    0 -0.11526133455E-01 -0.30845852019E-02  0.11170466426E+02  0.11170543406E+02  0.39716934215E-01 0.  0.
       11    1    1    2    0    0  0.11848202888E-01  0.19116309985E-02  0.82936957804E+00  0.82945656453E+00  0.51109989000E-03 0. -1.
     -623    1    1    2    0    0 -0.32206943354E-03  0.11729542034E-02  0.16398515724E-03  0.25126700030E+02  0.25126700000E+02 0.  1.
     -611    1    3    3    0    0  0.11073387241E-01 -0.17494977496E-02  0.27909054711E+01  0.27909459023E+01  0.10000000000E-01 0. -1.
      611    1    3    3    0    0 -0.22599520696E-01 -0.13350874523E-02  0.83795609548E+01  0.83795975032E+01  0.10000000000E-01 0. -1.
</event>
<event>
 7   0  0.6206631E-02  0.9118800E+02  0.7818608E-02  0.1180000E+00
       11   -1    0    0    0    0  0.00000000000E+00  0.00000000000E+00  0.11999999989E+02  0.12000000000E+02  0.51109989000E-03 0. -1.
     -623   -1    0    0    0    0  0.00000000000E+00  0.00000000000E+00  0.42561509872E-11  0.25126700000E+02  0.25126700000E+02 0. -1.
      622    2    1    2    0    0  0.58470729375E-02 -0.45078626579E-03  0.11989046047E+02  0.11989522244E+02  0.10669652087E+00 0.  0.
       11    1    1    2    0    0  0.37599152705E-02  0.23415124721E-02  0.94795366979E-02  0.10475804631E-01  0.51109989000E-03 0. -1.
     -623    1    1    2    0    0 -0.96069882080E-02 -0.18907262063E-02  0.14744057231E-02  0.25126701951E+02  0.25126700000E+02 0. -1.
     -611    1    3    3    0    0  0.17473425343E-02 -0.45347932987E-01  0.89954516216E+01  0.89955716530E+01  0.10000000000E-01 0. -1.
      611    1    3    3    0    0  0.40997304033E-02  0.44897146721E-01  0.29935944251E+01  0.29939505914E+01  0.10000000000E-01 0.  1.
</event>
<event>
 7   0  0.6206631E-02  0.9118800E+02  0.7818608E-02  0.1180000E+00
       11   -1    0    0    0    0  0.00000000000E+00  0.00000000000E+00  0.11999999989E+02  0.12000000000E+02  0.51109989000E-03 0. -1.
     -623   -1    0    0    0    0  0.00000000000E+00  0.00000000000E+00  0.42561509872E-11  0.25126700000E+02  0.25126700000E+02 0. -1.
      622    2    1    2    0    0  0.12934956071E-01  0.90826682507E-03  0.99611615828E+01  0.99615525827E+01  0.87302003578E-01 0.  0.
       11    1    1    2    0    0 -0.95173430582E-02 -0.97941627498E-03  0.20384246640E+01  0.20384471814E+01  0.51109989000E-03 0. -1.
     -623    1    1    2    0    0 -0.34176130133E-02  0.71149449913E-04  0.41374221869E-03  0.25126700236E+02  0.25126700000E+02 0. -1.
     -611    1    3    3    0    0  0.32754699547E-01  0.10169533723E-01  0.17945025247E+01  0.17948581005E+01  0.10000000000E-01 0.  1.
      611    1    3    3    0    0 -0.19819743476E-01 -0.92612668976E-02  0.81666590581E+01  0.81666944821E+01  0.10000000000E-01 0. -1.
</event>
<event>
 7   0  0.6206631E-02  0.9118800E+02  0.7818608E-02  0.1180000E+00
       11   -1    0    0    0    0  0.00000000000E+00  0.00000000000E+00  0.11999999989E+02  0.12000000000E+02  0.51109989000E-03 0. -1.
     -623   -1    0    0    0    0  0.00000000000E+00  0.00000000000E+00  0.42561509872E-11  0.25126700000E+02  0.25126700000E+02 0. -1.
      622    2    1    2    0    0  0.72088205910E-02 -0.25289698079E-01  0.67966756314E+01  0.67972686676E+01  0.85849667607E-01 0.  0.
       11    1    1    2    0    0 -0.22839176815E-02  0.20578554431E-01  0.52026891759E+01  0.52027304001E+01  0.51109989000E-03 0. -1.
     -623    1    1    2    0    0 -0.49249029095E-02  0.47111436484E-02  0.63518180905E-03  0.25126700932E+02  0.25126700000E+02 0. -1.
     -611    1    3    3    0    0 -0.28926025083E-01 -0.24761071592E-02  0.48549510571E+01  0.48550481576E+01  0.10000000000E-01 0.  1.
      611    1    3    3    0    0  0.36134845674E-01 -0.22813590920E-01  0.19417245742E+01  0.19422205099E+01  0.10000000000E-01 0. -1.
</event>
<event>
 7   0  0.6206631E-02  0.9118800E+02  0.7818608E-02  0.1180000E+00
       11   -1    0    0    0    0  0.00000000000E+00  0.00000000000E+00  0.11999999989E+02  0.12000000000E+02  0.51109989000E-03 0. -1.
     -623   -1    0    0    0    0  0.00000000000E+00  0.00000000000E+00  0.42561509872E-11  0.25126700000E+02  0.25126700000E+02 0.  1.
      622    2    1    2    0    0  0.83100440431E-03  0.18966823433E-02  0.11911836652E+02  0.11912274241E+02  0.10208272755E+00 0.  0.
       11    1    1    2    0    0  0.46190775137E-04 -0.51014025824E-04  0.87724156457E-01  0.87725672328E-01  0.51109989000E-03 0. -1.
     -623    1    1    2    0    0 -0.87719517945E-03 -0.18456683175E-02  0.43918102621E-03  0.25126700087E+02  0.25126700000E+02 0.  1.
     -611    1    3    3    0    0  0.56208500615E-02 -0.32976702949E-01  0.16364437372E+01  0.16368161662E+01  0.10000000000E-01 0.  1.
      611    1    3    3    0    0 -0.47898456572E-02  0.34873385292E-01  0.10275392914E+02  0.10275458075E+02  0.10000000000E-01 0. -1.
</event>
<event>
 7   0  0.6206631E-02  0.9118800E+02  0.7818608E-02  0.1180000E+00
       11   -1    0    0    0    0  0.00000000000E+00  0.00000000000E+00  0.11999999989E+02  0.12000000000E+02  0.51109989000E-03 0.  1.
     -623   -1    0    0    0    0  0.00000000000E+00  0.00000000000E+00  0.42561509872E-11  0.25126700000E+02  0.25126700000E+02 0. -1.
      622    2    1    2    0    0  0.38470915432E-01 -0.90507123648E-01  0.11707321104E+02  0.11708190745E+02  0.10339990643E+00 0.  0.
       11    1    1    2    0    0 -0.37323165933E-01  0.13732859908E+00  0.25467228282E+00  0.29173686037E+00  0.51109989000E-03 0.  1.
     -623    1    1    2    0    0 -0.11477494989E-02 -0.46821475432E-01  0.38006602165E-01  0.25126772394E+02  0.25126700000E+02 0. -1.
     -611    1    3    3    0    0  0.14834317003E-01 -0.83930015086E-01  0.44842738238E+01  0.44850948743E+01  0.10000000000E-01 0. -1.
      611    1    3    3    0    0  0.23636598429E-01 -0.65771085625E-02  0.72230472803E+01  0.72230958709E+01  0.10000000000E-01 0.  1.
</event>
<event>
 7   0  0.6206631E-02  0.9118800E+02  0.7818608E-02  0.1180000E+00
       11   -1    0    0    0    0  0.00000000000E+00  0.00000000000E+00  0.11999999989E+02  0.12000000000E+02  0.51109989000E-03 0.  1.
     -623   -1    0    0    0    0  0.00000000000E+00  0.00000000000E+00  0.42561509872E-11  0.25126700000E+02  0.25126700000E+02 0.  1.
      622    2    1    2    0    0 -0.87875440418E-03  0.97281394891E-01  0.11307983393E+02  0.11308782910E+02  0.92833426726E-01 0.  0.
       11    1    1    2    0    0 -0.20867445932E-01 -0.71499538538E-01  0.68716899618E+00  0.69119398496E+00  0.51109989000E-03 0.  1.
     -623    1    1    2    0    0  0.21746200336E-01 -0.25781856354E-01  0.48475997155E-02  0.25126723105E+02  0.25126700000E+02 0.  1.
     -611    1    3    3    0    0  0.29081052744E-02  0.85396351680E-01  0.47435398655E+01  0.47443199143E+01  0.10000000000E-01 0. -1.
      611    1    3    3    0    0 -0.37868596786E-02  0.11885043211E-01  0.65644435277E+01  0.65644629958E+01  0.10000000000E-01 0.  1.
</event>
<event>
 7   0  0.6206631E-02  0.9118800E+02  0.7818608E-02  0.1180000E+00
       11   -1    0    0    0    0  0.00000000000E+00  0.00000000000E+00  0.11999999989E+02  0.12000000000E+02  0.51109989000E-03 0.  1.
     -623   -1    0    0    0    0  0.00000000000E+00  0.00000000000E+00  0.42561509872E-11  0.25126700000E+02  0.25126700000E+02 0. -1.
      622    2    1    2    0    0 -0.38631916658E-02 -0.33364144445E-02  0.11846757501E+02  0.11847028608E+02  0.79984287848E-01 0.  0.
       11    1    1    2    0    0  0.31803338539E-02 -0.82535354151E-03  0.15293489153E+00  0.15297103648E+00  0.51109989000E-03 0.  1.
     -623    1    1    2    0    0  0.68285781187E-03  0.41617679860E-02  0.30759651067E-03  0.25126700356E+02  0.25126700000E+02 0. -1.
     -611    1    3    3    0    0  0.24079610980E-01  0.13170014779E-01  0.92859087127E+01  0.92859546573E+01  0.10000000000E-01 0.  1.
      611    1    3    3    0    0 -0.27942802646E-01 -0.16506429224E-01  0.25608487884E+01  0.25610739504E+01  0.10000000000E-01 0. -1.
</event>
<event>
 7   0  0.6206631E-02  0.9118800E+02  0.7818608E-02  0.1180000E+00
       11   -1    0    0    0    0  0.00000000000E+00  0.00000000000E+00  0.11999999989E+02  0.12000000000E+02  0.51109989000E-03 0.  1.
     -623   -1    0    0    0    0  0.00000000000E+00  0.00000000000E+00  0.42561509872E-11  0.25126700000E+02  0.25126700000E+02 0.  1.
      622    2    1    2    0    0 -0.21167096147E-02  0.85175605562E-03  0.10652541839E+02  0.10652572826E+02  0.25592557598E-01 0.  0.
       11    1    1    2    0    0  0.77249913099E-02 -0.32041751497E-02  0.13474003866E+01  0.13474264378E+01  0.51109989000E-03 0. -1.
     -623    1    1    2    0    0 -0.56082816952E-02  0.23524190940E-02  0.57763540639E-04  0.25126700736E+02  0.25126700000E+02 0.  1.
     -611    1    3    3    0    0 -0.19120121942E-02  0.55224666606E-02  0.79506818489E+01  0.79506902855E+01  0.10000000000E-01 0.  1.
      611    1    3    3    0    0 -0.20469742053E-03 -0.46707106050E-02  0.27018599899E+01  0.27018825405E+01  0.10000000000E-01 0.  1.
</event>
<event>
 7   0  0.6206631E-02  0.9118800E+02  0.7818608E-02  0.1180000E+00
       11   -1    0    0    0    0  0.00000000000E+00  0.00000000000E+00  0.11999999989E+02  0.12000000000E+02  0.51109989000E-03 0.  1.
     -623   -1    0    0    0    0  0.00000000000E+00  0.00000000000E+00  0.42561509872E-11  0.25126700000E+02  0.25126700000E+02 0.  1.
      622    2    1    2    0    0 -0.24184194769E-01 -0.77066980949E-02  0.11339688946E+02  0.11340000525E+02  0.80138932364E-01 0.  0.
       11    1    1    2    0    0  0.24801078803E-01  0.10233063814E-01  0.65945359202E+00  0.65999932603E+00  0.51109989000E-03 0.  1.
     -623    1    1    2    0    0 -0.61688403372E-03 -0.25263657193E-02  0.85745142416E-03  0.25126700149E+02  0.25126700000E+02 0.  1.
     -611    1    3    3    0    0 -0.60720687157E-02  0.12833255010E-01  0.99058625333E+01  0.99058777547E+01  0.10000000000E-01 0.  1.
      611    1    3    3    0    0 -0.18112126053E-01 -0.20539953105E-01  0.14338264124E+01  0.14341227701E+01  0.10000000000E-01 0.  1.
</event>
<event>
 7   0  0.6206631E-02  0.9118800E+02  0.7818608E-02  0.1180000E+00
       11   -1    0    0    0    0  0.00000000000E+00  0.00000000000E+00  0.11999999989E+02  0.12000000000E+02  0.51109989000E-03 0. -1.
     -623   -1    0    0    0    0  0.00000000000E+00  0.00000000000E+00  0.42561509872E-11  0.25126700000E+02  0.25126700000E+02 0. -1.
      622    2    1    2    0    0  0.10276968902E-03 -0.42045132899E-02  0.11951868445E+02  0.11952333023E+02  0.10529809342E+00 0.  0.
       11    1    1    2    0    0 -0.17542389675E-02 -0.30971884374E-02  0.47530017142E-01  0.47665854479E-01  0.51109989000E-03 0. -1.
     -623    1    1    2    0    0  0.16514692785E-02  0.73017017273E-02  0.60152730387E-03  0.25126701122E+02  0.25126700000E+02 0. -1.
     -611    1    3    3    0    0 -0.10481727742E-01  0.23809544603E-01  0.92588311249E+00  0.92630248787E+00  0.10000000000E-01 0.  1.
      611    1    3    3    0    0  0.10584497431E-01 -0.28014057893E-01  0.11025985332E+02  0.11026030535E+02  0.10000000000E-01 0. -1.
</event>
<event>
 7   0  0.6206631E-02  0.9118800E+02  0.7818608E-02  0.1180000E+00
       11   -1    0    0    0    0  0.00000000000E+00  0.00000000000E+00  0.11999999989E+02  0.12000000000E+02  0.51109989000E-03 0. -1.
     -623   -1    0    0    0    0  0.00000000000E+00  0.00000000000E+00  0.42561509872E-11  0.25126700000E+02  0.25126700000E+02 0. -1.
      622    2    1    2    0    0 -0.12154774002E+00  0.13074189728E-01  0.11188093895E+02  0.11189431963E+02  0.12246572745E+00 0.  0.
       11    1    1    2    0    0  0.14907771310E+00 -0.61042500280E-02  0.79669653980E+00  0.81054738551E+00  0.51109989000E-03 0. -1.
     -623    1    1    2    0    0 -0.27529973079E-01 -0.69699397004E-02  0.15209553946E-01  0.25126720652E+02  0.25126700000E+02 0. -1.
     -611    1    3    3    0    0 -0.14400037457E+00 -0.11102980153E-02  0.90881825259E+01  0.90893288511E+01  0.10000000000E-01 0. -1.
      611    1    3    3    0    0  0.22452634556E-01  0.14184487744E-01  0.20999113695E+01  0.21001031118E+01  0.10000000000E-01 0.  1.
</event>
<event>
 7   0  0.6206631E-02  0.9118800E+02  0.7818608E-02  0.1180000E+00
       11   -1    0    0    0    0  0.00000000000E+00  0.00000000000E+00  0.11999999989E+02  0.12000000000E+02  0.51109989000E-03 0.  1.
     -623   -1    0    0    0    0  0.00000000000E+00  0.00000000000E+00  0.42561509872E-11  0.25126700000E+02  0.25126700000E+02 0. -1.
      622    2    1    2    0    0  0.55093591794E-01 -0.52754958132E-01  0.11268089053E+02  0.11268728819E+02  0.92735630106E-01 0.  0.
       11    1    1    2    0    0 -0.38176062513E-01  0.49745016244E-01  0.72857146748E+00  0.73126508383E+00  0.51109989000E-03 0.  1.
     -623    1    1    2    0    0 -0.16917529281E-01  0.30099418883E-02  0.33394687218E-02  0.25126706097E+02  0.25126700000E+02 0. -1.
     -611    1    3    3    0    0  0.25398940883E-01  0.17940091361E-01  0.16164178842E+01  0.16167478868E+01  0.10000000000E-01 0.  1.
      611    1    3    3    0    0  0.29694650912E-01 -0.70695049494E-01  0.96516711687E+01  0.96519809320E+01  0.10000000000E-01 0. -1.
</event>
<event>
 7   0  0.6206631E-02  0.9118800E+02  0.7818608E-02  0.1180000E+00
       11   -1    0    0    0    0  0.00000000000E+00  0.00000000000E+00  0.11999999989E+02  0.12000000000E+02  0.51109989000E-03 0. -1.
     -623   -1    0    0    0    0  0.00000000000E+00  0.00000000000E+00  0.42561509872E-11  0.25126700000E+02  0.25126700000E+02 0. -1.
      622    2    1    2    0    0 -0.29800628471E-01  0.31918008200E-01  0.77265320800E+01  0.77272246732E+01  0.93788754117E-01 0.  0.
       11    1    1    2    0    0  0.24965437685E-01  0.29018414900E-01  0.42725294425E+01  0.42727009537E+01  0.51109989000E-03 0. -1.
     -623    1    1    2    0    0  0.48351907855E-02 -0.60936423099E-01  0.93846665065E-03  0.25126774373E+02  0.25126700000E+02 0. -1.
     -611    1    3    3    0    0 -0.46550695284E-02 -0.17419698383E-02  0.10907404485E+00  0.10964420364E+00  0.10000000000E-01 0. -1.
      611    1    3    3    0    0 -0.25145558942E-01  0.33659978038E-01  0.76174580351E+01  0.76175804696E+01  0.10000000000E-01 0. -1.
</event>
<event>
 7   0  0.6206631E-02  0.9118800E+02  0.7818608E-02  0.1180000E+00
       11   -1    0    0    0    0  0.00000000000E+00  0.00000000000E+00  0.11999999989E+02  0.12000000000E+02  0.51109989000E-03 0. -1.
     -623   -1    0    0    0    0  0.00000000000E+00  0.00000000000E+00  0.42561509872E-11  0.25126700000E+02  0.25126700000E+02 0.  1.
      622    2    1    2    0    0  0.80419339418E-03 -0.11859821166E-02  0.11991640154E+02  0.11992027378E+02  0.96358726382E-01 0.  0.
       11    1    1    2    0    0  0.58110152358E-03  0.80000667778E-03  0.78944955055E-02  0.79725762510E-02  0.51109989000E-03 0. -1.
     -623    1    1    2    0    0 -0.13852949178E-02  0.38597543885E-03  0.46533956616E-03  0.25126700045E+02  0.25126700000E+02 0.  1.
     -611    1    3    3    0    0 -0.21998900079E-01  0.40343381573E-01  0.50831583911E+01  0.50833759225E+01  0.10000000000E-01 0. -1.
      611    1    3    3    0    0  0.22803093473E-01 -0.41529363689E-01  0.69084817629E+01  0.69086514558E+01  0.10000000000E-01 0.  1.
</event>
<event>
 7   0  0.6206631E-02  0.9118800E+02  0.7818608E-02  0.1180000E+00
       11   -1    0    0    0    0  0.00000000000E+00  0.00000000000E+00  0.11999999989E+02  0.12000000000E+02  0.51109989000E-03 0. -1.
     -623   -1    0    0    0    0  0.00000000000E+00  0.00000000000E+00  0.42561509872E-11  0.25126700000E+02  0.25126700000E+02 0.  1.
      622    2    1    2    0    0  0.13124955045E-01 -0.38667856578E-01  0.11349730810E+02  0.11350195880E+02  0.94284636151E-01 0.  0.
       11    1    1    2    0    0 -0.10174078015E-01  0.29032205375E-01  0.64907325377E+00  0.64980207048E+00  0.51109989000E-03 0. -1.
     -623    1    1    2    0    0 -0.29508770299E-02  0.96356512033E-02  0.11959253468E-02  0.25126702049E+02  0.25126700000E+02 0.  1.
     -611    1    3    3    0    0  0.27386573686E-01 -0.34980525281E-01  0.10921710063E+02  0.10921804996E+02  0.10000000000E-01 0. -1.
      611    1    3    3    0    0 -0.14261618641E-01 -0.36873312976E-02  0.42802074695E+00  0.42839088459E+00  0.10000000000E-01 0.  1.
</event>
<event>
 7   0  0.6206631E-02  0.9118800E+02  0.7818608E-02  0.1180000E+00
       11   -1    0    0    0    0  0.00000000000E+00  0.00000000000E+00  0.11999999989E+02  0.12000000000E+02  0.51109989000E-03 0. -1.
     -623   -1    0    0    0    0  0.00000000000E+00  0.00000000000E+00  0.42561509872E-11  0.25126700000E+02  0.25126700000E+02 0. -1.
      622    2    1    2    0    0 -0.10134079986E-01  0.45971021833E-02  0.11994312225E+02  0.11994623106E+02  0.85637996269E-01 0.  0.
       11    1    1    2    0    0  0.13547717863E-02  0.26791570147E-02  0.44281282991E-02  0.53742750458E-02  0.51109989000E-03 0. -1.
     -623    1    1    2    0    0  0.87793082000E-02 -0.72762591980E-02  0.12596355286E-02  0.25126702619E+02  0.25126700000E+02 0. -1.
     -611    1    3    3    0    0 -0.39981910313E-01  0.23999855361E-01  0.55558351624E+01  0.55560398575E+01  0.10000000000E-01 0. -1.
      611    1    3    3    0    0  0.29847830327E-01 -0.19402753177E-01  0.64384770629E+01  0.64385832486E+01  0.10000000000E-01 0.  1.
</event>
<event>
 7   0  0.6206631E-02  0.9118800E+02  0.7818608E-02  0.1180000E+00
       11   -1    0    0    0    0  0.00000000000E+00  0.00000000000E+00  0.11999999989E+02  0.12000000000E+02  0.51109989000E-03 0.  1.
     -623   -1    0    0    0    0  0.00000000000E+00  0.00000000000E+00  0.42561509872E-11  0.25126700000E+02  0.25126700000E+02 0. -1.
      622    2    1    2    0    0 -0.39384402560E-02  0.79021940757E-02  0.11927867231E+02  0.11928246900E+02  0.94760050820E-01 0.  0.
       11    1    1    2    0    0  0.29540677764E-01  0.24095126164E-01  0.60744175274E-01  0.71717102566E-01  0.51109989000E-03 0.  1.
     -623    1    1    2    0    0 -0.25602237509E-01 -0.31997320240E-01  0.11388582850E-01  0.25126735998E+02  0.25126700000E+02 0. -1.
     -611    1    3    3    0    0  0.12440369030E-01  0.18212181782E-01  0.11257041210E+02  0.11257067258E+02  0.10000000000E-01 0.  1.
      611    1    3    3    0    0 -0.16378809286E-01 -0.10309987707E-01  0.67082602068E+00  0.67117964157E+00  0.10000000000E-01 0. -1.
</event>
<event>
 7   0  0.6206631E-02  0.9118800E+02  0.7818608E-02  0.1180000E+00
       11   -1    0    0    0    0  0.00000000000E+00  0.00000000000E+00  0.11999999989E+02  0.12000000000E+02  0.51109989000E-03 0.  1.
     -623   -1    0    0    0    0  0.00000000000E+00  0.00000000000E+00  0.42561509872E-11  0.25126700000E+02  0.25126700000E+02 0. -1.
      622    2    1    2    0    0  0.18336917909E-02  0.33072791005E-02  0.11865123610E+02  0.11865542107E+02  0.99583786869E-01 0.  0.
       11    1    1    2    0    0  0.16985794711E-02 -0.14299480538E-02  0.13443826504E+00  0.13445757046E+00  0.51109989000E-03 0.  1.
     -623    1    1    2    0    0 -0.35322712620E-02 -0.18773310467E-02  0.43811455978E-03  0.25126700322E+02  0.25126700000E+02 0. -1.
     -611    1    3    3    0    0  0.19019456202E-01  0.41509928150E-01  0.86992757218E+01  0.86994012954E+01  0.10000000000E-01 0.  1.
      611    1    3    3    0    0 -0.17185764412E-01 -0.38202649049E-01  0.31658478877E+01  0.31661408119E+01  0.10000000000E-01 0. -1.
</event>
<event>
 7   0  0.6206631E-02  0.9118800E+02  0.7818608E-02  0.1180000E+00
       11   -1    0    0    0    0  0.00000000000E+00  0.00000000000E+00  0.11999999989E+02  0.12000000000E+02  0.51109989000E-03 0. -1.
     -623   -1    0    0    0    0  0.00000000000E+00  0.00000000000E+00  0.42561509872E-11  0.25126700000E+02  0.25126700000E+02 0.  1.
      622    2    1    2    0    0  0.44748570226E-02  0.10800384034E-01  0.11429874928E+02  0.11430306203E+02  0.98601930203E-01 0.  0.
       11    1    1    2    0    0  0.16064023294E-02  0.36317262020E-02  0.56967484230E+00  0.56968891260E+00  0.51109989000E-03 0. -1.
     -623    1    1    2    0    0 -0.60812593519E-02 -0.14432110236E-01  0.45021856987E-03  0.25126704885E+02  0.25126700000E+02 0.  1.
     -611    1    3    3    0    0  0.10797108373E-01  0.51522882252E-01  0.48843527442E+01  0.48846466520E+01  0.10000000000E-01 0.  1.
      611    1    3    3    0    0 -0.63222513500E-02 -0.40722498218E-01  0.65455221841E+01  0.65456595508E+01  0.10000000000E-01 0. -1.
</event>
<event>
 7   0  0.6206631E-02  0.9118800E+02  0.7818608E-02  0.1180000E+00
       11   -1    0    0    0    0  0.00000000000E+00  0.00000000000E+00  0.11999999989E+02  0.12000000000E+02  0.51109989000E-03 0. -1.
     -623   -1    0    0    0    0  0.00000000000E+00  0.00000000000E+00  0.42561509872E-11  0.25126700000E+02  0.25126700000E+02 0. -1.
      622    2    1    2    0    0 -0.59873917042E-02  0.11755763364E-01  0.11929762372E+02  0.11930122199E+02  0.91713533998E-01 0.  0.
       11    1    1    2    0    0  0.87205889380E-02  0.15344773016E-01  0.67594768187E-01  0.69862898879E-01  0.51109989000E-03 0. -1.
     -623    1    1    2    0    0 -0.27331972339E-02 -0.27100536380E-01  0.26428486803E-02  0.25126714902E+02  0.25126700000E+02 0. -1.
     -611    1    3    3    0    0 -0.32251033489E-01  0.14727385206E-01  0.21261988102E+01  0.21265179062E+01  0.10000000000E-01 0.  1.
      611    1    3    3    0    0  0.26263641785E-01 -0.29716218419E-02  0.98035635620E+01  0.98036042925E+01  0.10000000000E-01 0. -1.
</event>
<event>
 7   0  0.6206631E-02  0.9118800E+02  0.7818608E-02  0.1180000E+00
       11   -1    0    0    0    0  0.00000000000E+00  0.00000000000E+00  0.11999999989E+02  0.12000000000E+02  0.51109989000E-03 0. -1.
     -623   -1    0    0    0    0  0.00000000000E+00  0.00000000000E+00  0.42561509872E-11  0.25126700000E+02  0.25126700000E+02 0. -1.
      622    2    1    2    0    0  0.99018100543E-02 -0.26338180474E-02  0.11716960871E+02  0.11717141774E+02  0.64298591435E-01 0.  0.
       11    1    1    2    0    0 -0.96747254104E-02  0.32959087182E-02  0.28267303453E+00  0.28285821360E+00  0.51109989000E-03 0. -1.
     -623    1    1    2    0    0 -0.22708464393E-03 -0.66209067086E-03  0.36608327187E-03  0.25126700012E+02  0.25126700000E+02 0. -1.
     -611    1    3    3    0    0 -0.27972627601E-02  0.22849000551E-01  0.85572264295E+01  0.85572632346E+01  0.10000000000E-01 0. -1.
      611    1    3    3    0    0  0.12699072814E-01 -0.25482818599E-01  0.31597344419E+01  0.31598785394E+01  0.10000000000E-01 0.  1.
</event>
<event>
 7   0  0.6206631E-02  0.9118800E+02  0.7818608E-02  0.1180000E+00
       11   -1    0    0    0    0  0.00000000000E+00  0.00000000000E+00  0.11999999989E+02  0.12000000000E+02  0.51109989000E-03 0. -1.
     -623   -1    0    0    0    0  0.00000000000E+00  0.00000000000E+00  0.42561509872E-11  0.25126700000E+02  0.25126700000E+02 0. -1.
      622    2    1    2    0    0 -0.20569101634E-02  0.15626362390E-02  0.11990780461E+02  0.11991394238E+02  0.12129726918E+00 0.  0.
       11    1    1    2    0    0 -0.16718747406E-02  0.35256799166E-04  0.84258924573E-02  0.86054224203E-02  0.51109989000E-03 0. -1.
     -623    1    1    2    0    0  0.37287849041E-02 -0.15978930381E-02  0.79363580623E-03  0.25126700340E+02  0.25126700000E+02 0. -1.
     -611    1    3    3    0    0  0.52840284387E-02  0.19984910469E-01  0.11573755383E+02  0.11573778164E+02  0.10000000000E-01 0. -1.
      611    1    3    3    0    0 -0.73409386021E-02 -0.18422274230E-01  0.41702507807E+00  0.41761607406E+00  0.10000000000E-01 0.  1.
</event>
<event>
 7   0  0.6206631E-02  0.9118800E+02  0.7818608E-02  0.1180000E+00
       11   -1    0    0    0    0  0.00000000000E+00  0.00000000000E+00  0.11999999989E+02  0.12000000000E+02  0.51109989000E-03 0.  1.
     -623   -1    0    0    0    0  0.00000000000E+00  0.00000000000E+00  0.42561509872E-11  0.25126700000E+02  0.25126700000E+02 0. -1.
      622    2    1    2    0    0  0.23794198672E-01  0.11898772488E-01  0.11723828519E+02  0.11724302515E+02  0.10201257083E+00 0.  0.
       11    1    1    2    0    0 -0.26712783921E-01 -0.11281343595E-01  0.27416757453E+00  0.27569722829E+00  0.51109989000E-03 0.  1.
     -623    1    1    2    0    0  0.29185852484E-02 -0.61742889302E-03  0.20038954027E-02  0.25126700257E+02  0.25126700000E+02 0. -1.
     -611    1    3    3    0    0  0.19977420751E-01  0.22794891411E-02  0.54232807847E+00  0.54279281324E+00  0.10000000000E-01 0. -1.
      611    1    3    3    0    0  0.38167779211E-02  0.96192833464E-02  0.11181500441E+02  0.11181509701E+02  0.10000000000E-01 0.  1.
</event>
<event>
 7   0  0.6206631E-02  0.9118800E+02  0.7818608E-02  0.1180000E+00
       11   -1    0    0    0    0  0.00000000000E+00  0.00000000000E+00  0.11999999989E+02  0.12000000000E+02  0.51109989000E-03 0. -1.
     -623   -1    0    0    0    0  0.00000000000E+00  0.00000000000E+00  0.42561509872E-11  0.25126700000E+02  0.25126700000E+02 0. -1.
      622    2    1    2    0    0 -0.12444900336E-01  0.14793940463E-02  0.11502791809E+02  0.11502976523E+02  0.63972044508E-01 0.  0.
       11    1    1    2    0    0  0.12145945317E-01 -0.18327605283E-02  0.49687139822E+00  0.49702347087E+00  0.51109989000E-03 0. -1.
     -623    1    1    2    0    0  0.29895501924E-03  0.35336648200E-03  0.33678224806E-03  0.25126700007E+02  0.25126700000E+02 0. -1.
     -611    1    3    3    0    0 -0.16468913454E-01 -0.26955388311E-01  0.72686022900E+01  0.72686778074E+01  0.10000000000E-01 0. -1.
      611    1    3    3    0    0  0.40240131187E-02  0.28434782357E-01  0.42341895187E+01  0.42342987153E+01  0.10000000000E-01 0.  1.
</event>
<event>
 7   0  0.6206631E-02  0.9118800E+02  0.7818608E-02  0.1180000E+00
       11   -1    0    0    0    0  0.00000000000E+00  0.00000000000E+00  0.11999999989E+02  0.12000000000E+02  0.51109989000E-03 0. -1.
     -623   -1    0    0    0    0  0.00000000000E+00  0.00000000000E+00  0.42561509872E-11  0.25126700000E+02  0.25126700000E+02 0. -1.
      622    2    1    2    0    0 -0.81915509436E-02  0.40539569714E-02  0.11508780631E+02  0.11508874732E+02  0.45633883922E-01 0.  0.
       11    1    1    2    0    0  0.84565313571E-02 -0.36378690002E-02  0.49103871032E+00  0.49112526230E+00  0.51109989000E-03 0. -1.
     -623    1    1    2    0    0 -0.26498041350E-03 -0.41608797119E-03  0.18064772421E-03  0.25126700005E+02  0.25126700000E+02 0. -1.
     -611    1    3    3    0    0 -0.35813366258E-02  0.20959877801E-01  0.41565242605E+01  0.41565906788E+01  0.10000000000E-01 0.  1.
      611    1    3    3    0    0 -0.46102143177E-02 -0.16905920830E-01  0.73522563705E+01  0.73522840534E+01  0.10000000000E-01 0. -1.
</event>
<event>
 7   0  0.6206631E-02  0.9118800E+02  0.7818608E-02  0.1180000E+00
       11   -1    0    0    0    0  0.00000000000E+00  0.00000000000E+00  0.11999999989E+02  0.12000000000E+02  0.51109989000E-03 0.  1.
     -623   -1    0    0    0    0  0.00000000000E+00  0.00000000000E+00  0.42561509872E-11  0.25126700000E+02  0.25126700000E+02 0. -1.
      622    2    1    2    0    0 -0.17638545042E-01 -0.78092259209E-02  0.11495978355E+02  0.11496529863E+02  0.11094338615E+00 0.  0.
       11    1    1    2    0    0  0.17313636957E-01 -0.37044858852E-02  0.50315580030E+00  0.50346748241E+00  0.51109989000E-03 0.  1.
     -623    1    1    2    0    0  0.32490808534E-03  0.11513711806E-01  0.86583353221E-03  0.25126702655E+02  0.25126700000E+02 0. -1.
     -611    1    3    3    0    0 -0.12973759297E-01 -0.21397919765E-01  0.67544681415E+00  0.67598416264E+00  0.10000000000E-01 0. -1.
      611    1    3    3    0    0 -0.46647857445E-02  0.13588693844E-01  0.10820531541E+02  0.10820545700E+02  0.10000000000E-01 0.  1.
</event>
<event>
 7   0  0.6206631E-02  0.9118800E+02  0.7818608E-02  0.1180000E+00
       11   -1    0    0    0    0  0.00000000000E+00  0.00000000000E+00  0.11999999989E+02  0.12000000000E+02  0.51109989000E-03 0. -1.
     -623   -1    0    0    0    0  0.00000000000E+00  0.00000000000E+00  0.42561509872E-11  0.25126700000E+02  0.25126700000E+02 0.  1.
      622    2    1    2    0    0  0.10141771900E-01 -0.16011675083E-02  0.11880051597E+02  0.11880304628E+02  0.76855065444E-01 0.  0.
       11    1    1    2    0    0 -0.94609107642E-02  0.15607482098E-02  0.11930956320E+00  0.11969535438E+00  0.51109989000E-03 0. -1.
     -623    1    1    2    0    0 -0.68086113574E-03  0.40419298530E-04  0.63882925896E-03  0.25126700017E+02  0.25126700000E+02 0.  1.
     -611    1    3    3    0    0  0.11595790443E-01  0.23705565967E-01  0.10143404794E+02  0.10143444052E+02  0.10000000000E-01 0. -1.
      611    1    3    3    0    0 -0.14540185429E-02 -0.25306733475E-01  0.17366468029E+01  0.17368605767E+01  0.10000000000E-01 0. -1.
</event>
<event>
 7   0  0.6206631E-02  0.9118800E+02  0.7818608E-02  0.1180000E+00
       11   -1    0    0    0    0  0.00000000000E+00  0.00000000000E+00  0.11999999989E+02  0.12000000000E+02  0.51109989000E-03 0.  1.
     -623   -1    0    0    0    0  0.00000000000E+00  0.00000000000E+00  0.42561509872E-11  0.25126700000E+02  0.25126700000E+02 0.  1.
      622    2    1    2    0    0 -0.26724953628E-01  0.60083893067E-02  0.11368215248E+02  0.11368648346E+02  0.95377969308E-01 0.  0.
       11    1    1    2    0    0 -0.21491398668E-01 -0.57440571826E-01  0.62826600070E+00  0.63125250761E+00  0.51109989000E-03 0.  1.
     -623    1    1    2    0    0  0.48216352297E-01  0.51432182520E-01  0.35187403058E-02  0.25126799147E+02  0.25126700000E+02 0.  1.
     -611    1    3    3    0    0 -0.59682359411E-01  0.64579910536E-02  0.86641605615E+01  0.86643742951E+01  0.10000000000E-01 0.  1.
      611    1    3    3    0    0  0.32957405782E-01 -0.44960174695E-03  0.27040546866E+01  0.27042740506E+01  0.10000000000E-01 0. -1.
</event>
<event>
 7   0  0.6206631E-02  0.9118800E+02  0.7818608E-02  0.1180000E+00
       11   -1    0    0    0    0  0.00000000000E+00  0.00000000000E+00  0.11999999989E+02  0.12000000000E+02  0.51109989000E-03 0. -1.
     -623   -1    0    0    0    0  0.00000000000E+00  0.00000000000E+00  0.42561509872E-11  0.25126700000E+02  0.25126700000E+02 0. -1.
      622    2    1    2    0    0 -0.15206069927E-01  0.10144618587E-01  0.11812725583E+02  0.11813519925E+02  0.13576883216E+00 0.  0.
       11    1    1    2    0    0 -0.68514235818E-02  0.24599686382E-01  0.18468852773E+00  0.18644623910E+00  0.51109989000E-03 0. -1.
     -623    1    1    2    0    0  0.22057493509E-01 -0.34744304969E-01  0.25858784807E-02  0.25126733836E+02  0.25126700000E+02 0. -1.
     -611    1    3    3    0    0  0.16434525362E-02  0.61420807846E-01  0.31196520491E+01  0.31202730849E+01  0.10000000000E-01 0.  1.
      611    1    3    3    0    0 -0.16849522463E-01 -0.51276189259E-01  0.86930735338E+01  0.86932468398E+01  0.10000000000E-01 0. -1.
</event>
<event>
 7   0  0.6206631E-02  0.9118800E+02  0.7818608E-02  0.1180000E+00
       11   -1    0    0    0    0  0.00000000000E+00  0.00000000000E+00  0.11999999989E+02  0.12000000000E+02  0.51109989000E-03 0. -1.
     -623   -1    0    0    0    0  0.00000000000E+00  0.00000000000E+00  0.42561509872E-11  0.25126700000E+02  0.25126700000E+02 0.  1.
      622    2    1    2    0    0  0.87534841912E-02  0.92988948670E-02  0.11784629887E+02  0.11784877084E+02  0.75254353040E-01 0.  0.
       11    1    1    2    0    0 -0.13000582863E-01  0.21008427161E-02  0.21471587817E+00  0.21511996248E+00  0.51109989000E-03 0. -1.
     -623    1    1    2    0    0  0.42470986716E-02 -0.11399737583E-01  0.65422382149E-03  0.25126702953E+02  0.25126700000E+02 0.  1.
     -611    1    3    3    0    0  0.13508106300E-01 -0.11409848849E-02  0.11291211500E+02  0.11291224066E+02  0.10000000000E-01 0. -1.
      611    1    3    3    0    0 -0.47546221090E-02  0.10439879752E-01  0.49341838735E+00  0.49365301832E+00  0.10000000000E-01 0. -1.
</event>
<event>
 7   0  0.6206631E-02  0.9118800E+02  0.7818608E-02  0.1180000E+00
       11   -1    0    0    0    0  0.00000000000E+00  0.00000000000E+00  0.11999999989E+02  0.12000000000E+02  0.51109989000E-03 0. -1.
     -623   -1    0    0    0    0  0.00000000000E+00  0.00000000000E+00  0.42561509872E-11  0.25126700000E+02  0.25126700000E+02 0. -1.
      622    2    1    2    0    0  0.22920440596E-02 -0.11566954518E-01  0.68932193549E+01  0.68933732789E+01  0.44531339517E-01 0.  0.
       11    1    1    2    0    0 -0.12836032002E-02  0.83779915182E-02  0.51066194386E+01  0.51066264981E+01  0.51109989000E-03 0. -1.
     -623    1    1    2    0    0 -0.10084408594E-02  0.31889629999E-02  0.16119570336E-03  0.25126700223E+02  0.25126700000E+02 0. -1.
     -611    1    3    3    0    0 -0.11018619491E-01 -0.17278098234E-01  0.21428460180E+01  0.21429673351E+01  0.10000000000E-01 0. -1.
      611    1    3    3    0    0  0.13310663550E-01  0.57111437162E-02  0.47503733369E+01  0.47504059438E+01  0.10000000000E-01 0.  1.
</event>
<event>
 7   0  0.6206631E-02  0.9118800E+02  0.7818608E-02  0.1180000E+00
       11   -1    0    0    0    0  0.00000000000E+00  0.00000000000E+00  0.11999999989E+02  0.12000000000E+02  0.51109989000E-03 0.  1.
     -623   -1    0    0    0    0  0.00000000000E+00  0.00000000000E+00  0.42561509872E-11  0.25126700000E+02  0.25126700000E+02 0. -1.
      622    2    1    2    0    0 -0.13382622984E-01 -0.32675964323E-02  0.10945204060E+02  0.10945250985E+02  0.28938538195E-01 0.  0.
       11    1    1    2    0    0  0.13249224023E-01  0.28728126062E-02  0.10546617566E+01  0.10547490114E+01  0.51109989000E-03 0.  1.
     -623    1    1    2    0    0  0.13339896129E-03  0.39478382619E-03  0.13417278632E-03  0.25126700004E+02  0.25126700000E+02 0. -1.
     -611    1    3    3    0    0 -0.86540290849E-02 -0.36081141885E-02  0.23611941647E+01  0.23612339558E+01  0.10000000000E-01 0.  1.
      611    1    3    3    0    0 -0.47285938994E-02  0.34051775611E-03  0.85840098949E+01  0.85840170288E+01  0.10000000000E-01 0.  1.
</event>
<event>
 7   0  0.6206631E-02  0.9118800E+02  0.7818608E-02  0.1180000E+00
       11   -1    0    0    0    0  0.00000000000E+00  0.00000000000E+00  0.11999999989E+02  0.12000000000E+02  0.51109989000E-03 0. -1.
     -623   -1    0    0    0    0  0.00000000000E+00  0.00000000000E+00  0.42561509872E-11  0.25126700000E+02  0.25126700000E+02 0.  1.
      622    2    1    2    0    0  0.80237843142E-02  0.15968611505E-02  0.11982355248E+02  0.11982738730E+02  0.95515799396E-01 0.  0.
       11    1    1    2    0    0 -0.49270818527E-02 -0.43466135372E-02  0.15953284260E-01  0.17260871549E-01  0.51109989000E-03 0. -1.
     -623    1    1    2    0    0 -0.30967024615E-02  0.27497523867E-02  0.16914573285E-02  0.25126700398E+02  0.25126700000E+02 0.  1.
     -611    1    3    3    0    0 -0.42705999666E-01  0.38168312097E-02  0.57600782995E+01  0.57602465561E+01  0.10000000000E-01 0. -1.
      611    1    3    3    0    0  0.50729783981E-01 -0.22199700592E-02  0.62222769480E+01  0.62224921741E+01  0.10000000000E-01 0.  1.
</event>
<event>
 7   0  0.6206631E-02  0.9118800E+02  0.7818608E-02  0.1180000E+00
       11   -1    0    0    0    0  0.00000000000E+00  0.00000000000E+00  0.11999999989E+02  0.12000000000E+02  0.51109989000E-03 0. -1.
     -623   -1    0    0    0    0  0.00000000000E+00  0.00000000000E+00  0.42561509872E-11  0.25126700000E+02  0.25126700000E+02 0.  1.
      622    2    1    2    0    0  0.80151999578E-02  0.13923107130E-03  0.10686848144E+02  0.10687340789E+02  0.10230159814E+00 0.  0.
       11    1    1    2    0    0 -0.74676531567E-02  0.23848608034E-02  0.13126355653E+01  0.13126590730E+01  0.51109989000E-03 0. -1.
     -623    1    1    2    0    0 -0.54754680114E-03 -0.25240918747E-02  0.51627951271E-03  0.25126700138E+02  0.25126700000E+02 0.  1.
     -611    1    3    3    0    0 -0.38159130077E-01  0.27220175137E-01  0.46461057798E+01  0.46463529757E+01  0.10000000000E-01 0. -1.
      611    1    3    3    0    0  0.46174330035E-01 -0.27080944066E-01  0.60407423645E+01  0.60409878133E+01  0.10000000000E-01 0. -1.
</event>
<event>
 7   0  0.6206631E-02  0.9118800E+02  0.7818608E-02  0.1180000E+00
       11   -1    0    0    0    0  0.00000000000E+00  0.00000000000E+00  0.11999999989E+02  0.12000000000E+02  0.51109989000E-03 0. -1.
     -623   -1    0    0    0    0  0.00000000000E+00  0.00000000000E+00  0.42561509872E-11  0.25126700000E+02  0.25126700000E+02 0. -1.
      622    2    1    2    0    0 -0.44655068385E-01 -0.11356748202E-01  0.10225618107E+02  0.10226243080E+02  0.10324152796E+00 0.  0.
       11    1    1    2    0    0  0.58060504476E-01  0.86443558851E-02  0.17727814919E+01  0.17737531469E+01  0.51109989000E-03 0. -1.
     -623    1    1    2    0    0 -0.13405436091E-01  0.27123923171E-02  0.16003906697E-02  0.25126703773E+02  0.25126700000E+02 0. -1.
     -611    1    3    3    0    0 -0.64754753235E-01 -0.26977100191E-01  0.91599984411E+01  0.91602725059E+01  0.10000000000E-01 0. -1.
      611    1    3    3    0    0  0.20099684850E-01  0.15620351989E-01  0.10656196655E+01  0.10659705738E+01  0.10000000000E-01 0.  1.
</event>
<event>
 7   0  0.6206631E-02  0.9118800E+02  0.7818608E-02  0.1180000E+00
       11   -1    0    0    0    0  0.00000000000E+00  0.00000000000E+00  0.11999999989E+02  0.12000000000E+02  0.51109989000E-03 0.  1.
     -623   -1    0    0    0    0  0.00000000000E+00  0.00000000000E+00  0.42561509872E-11  0.25126700000E+02  0.25126700000E+02 0.  1.
      622    2    1    2    0    0 -0.14799580488E+00  0.13825015398E+00  0.53944356563E+01  0.53991160000E+01  0.97476501435E-01 0.  0.
       11    1    1    2    0    0  0.14188843617E+00 -0.13054644743E+00  0.65980644473E+01  0.66008809575E+01  0.51109989000E-03 0.  1.
     -623    1    1    2    0    0  0.61073687052E-02 -0.77037065461E-02  0.74998855320E-02  0.25126703042E+02  0.25126700000E+02 0.  1.
     -611    1    3    3    0    0 -0.71644022586E-01  0.16528324289E-01  0.12697862123E+01  0.12719524663E+01  0.10000000000E-01 0. -1.
      611    1    3    3    0    0 -0.76351782293E-01  0.12172182969E+00  0.41246494440E+01  0.41271635337E+01  0.10000000000E-01 0.  1.
</event>
<event>
 7   0  0.6206631E-02  0.9118800E+02  0.7818608E-02  0.1180000E+00
       11   -1    0    0    0    0  0.00000000000E+00  0.00000000000E+00  0.11999999989E+02  0.12000000000E+02  0.51109989000E-03 0. -1.
     -623   -1    0    0    0    0  0.00000000000E+00  0.00000000000E+00  0.42561509872E-11  0.25126700000E+02  0.25126700000E+02 0. -1.
      622    2    1    2    0    0  0.20514143198E-01  0.24331854261E-02  0.11468406381E+02  0.11468822514E+02  0.95489227900E-01 0.  0.
       11    1    1    2    0    0 -0.75592108102E-02 -0.56048111189E-02  0.53109032984E+00  0.53117394067E+00  0.51109989000E-03 0. -1.
     -623    1    1    2    0    0 -0.12954932388E-01  0.31716256928E-02  0.50327806937E-03  0.25126703545E+02  0.25126700000E+02 0. -1.
     -611    1    3    3    0    0  0.28794705848E-01  0.64005668666E-02  0.11910809602E+01  0.11914881267E+01  0.10000000000E-01 0.  1.
      611    1    3    3    0    0 -0.82805626505E-02 -0.39673814406E-02  0.10277325421E+02  0.10277334388E+02  0.10000000000E-01 0. -1.
</event>
<event>
 7   0  0.6206631E-02  0.9118800E+02  0.7818608E-02  0.1180000E+00
       11   -1    0    0    0    0  0.00000000000E+00  0.00000000000E+00  0.11999999989E+02  0.12000000000E+02  0.51109989000E-03 0. -1.
     -623   -1    0    0    0    0  0.00000000000E+00  0.00000000000E+00  0.42561509872E-11  0.25126700000E+02  0.25126700000E+02 0.  1.
      622    2    1    2    0    0  0.18646690287E-01 -0.30550409530E-01  0.94405008166E+01  0.94407099189E+01  0.51643760104E-01 0.  0.
       11    1    1    2    0    0 -0.22581126461E-01  0.28192590141E-01  0.25590346938E+01  0.25592896582E+01  0.51109989000E-03 0. -1.
     -623    1    1    2    0    0  0.39344361743E-02  0.23578193886E-02  0.46447879718E-03  0.25126700423E+02  0.25126700000E+02 0.  1.
     -611    1    3    3    0    0  0.24318774591E-01 -0.58455971020E-02  0.23101296842E+01  0.23102867207E+01  0.10000000000E-01 0.  1.
      611    1    3    3    0    0 -0.56720843039E-02 -0.24704812428E-01  0.71303711324E+01  0.71304231982E+01  0.10000000000E-01 0. -1.
</event>
<event>
 7   0  0.6206631E-02  0.9118800E+02  0.7818608E-02  0.1180000E+00
       11   -1    0    0    0    0  0.00000000000E+00  0.00000000000E+00  0.11999999989E+02  0.12000000000E+02  0.51109989000E-03 0.  1.
     -623   -1    0    0    0    0  0.00000000000E+00  0.00000000000E+00  0.42561509872E-11  0.25126700000E+02  0.25126700000E+02 0.  1.
      622    2    1    2    0    0 -0.26031264112E-01 -0.67215398572E-01  0.74140742405E+01  0.74153101697E+01  0.11459726715E+00 0.  0.
       11    1    1    2    0    0  0.26255304991E-01  0.12924332106E-01  0.45845377117E+01  0.45846311379E+01  0.51109989000E-03 0.  1.
     -623    1    1    2    0    0 -0.22404087955E-03  0.54291066465E-01  0.13880369987E-02  0.25126758692E+02  0.25126700000E+02 0.  1.
     -611    1    3    3    0    0  0.31314907760E-01 -0.44203992490E-01  0.53583873300E+01  0.53586704876E+01  0.10000000000E-01 0. -1.
      611    1    3    3    0    0 -0.57346171871E-01 -0.23011406081E-01  0.20556869104E+01  0.20566396821E+01  0.10000000000E-01 0.  1.
</event>
<event>
 7   0  0.6206631E-02  0.9118800E+02  0.7818608E-02  0.1180000E+00
       11   -1    0    0    0    0  0.00000000000E+00  0.00000000000E+00  0.11999999989E+02  0.12000000000E+02  0.51109989000E-03 0.  1.
     -623   -1    0    0    0    0  0.00000000000E+00  0.00000000000E+00  0.42561509872E-11  0.25126700000E+02  0.25126700000E+02 0. -1.
      622    2    1    2    0    0 -0.47341221497E-01  0.20995406377E-01  0.10712604603E+02  0.10714294589E+02  0.18310972192E+00 0.  0.
       11    1    1    2    0    0 -0.13938625609E-01 -0.57139352829E-01  0.12842583315E+01  0.12856044937E+01  0.51109989000E-03 0.  1.
     -623    1    1    2    0    0  0.61279847106E-01  0.36143946452E-01  0.31370549800E-02  0.25126800917E+02  0.25126700000E+02 0. -1.
     -611    1    3    3    0    0 -0.28054468663E-01  0.10179741246E+00  0.55784882657E+01  0.55794964914E+01  0.10000000000E-01 0. -1.
      611    1    3    3    0    0 -0.19286752834E-01 -0.80802006082E-01  0.51341163369E+01  0.51347980976E+01  0.10000000000E-01 0.  1.
</event>
<event>
 7   0  0.6206631E-02  0.9118800E+02  0.7818608E-02  0.1180000E+00
       11   -1    0    0    0    0  0.00000000000E+00  0.00000000000E+00  0.11999999989E+02  0.12000000000E+02  0.51109989000E-03 0.  1.
     -623   -1    0    0    0    0  0.00000000000E+00  0.00000000000E+00  0.42561509872E-11  0.25126700000E+02  0.25126700000E+02 0. -1.
      622    2    1    2    0    0 -0.11677951208E-02 -0.28726885876E-02  0.11977193709E+02  0.11977735080E+02  0.11383719385E+00 0.  0.
       11    1    1    2    0    0 -0.15302390211E-03  0.30327690345E-02  0.22050901082E-01  0.22264872917E-01  0.51109989000E-03 0.  1.
     -623    1    1    2    0    0  0.13208190229E-02 -0.16008044695E-03  0.75537932948E-03  0.25126700047E+02  0.25126700000E+02 0. -1.
     -611    1    3    3    0    0  0.49221737648E-01  0.12995771129E-01  0.81317506007E+01  0.81319161027E+01  0.10000000000E-01 0. -1.
      611    1    3    3    0    0 -0.50389532769E-01 -0.15868459716E-01  0.38454431080E+01  0.38458189778E+01  0.10000000000E-01 0.  1.
</event>
<event>
 7   0  0.6206631E-02  0.9118800E+02  0.7818608E-02  0.1180000E+00
       11   -1    0    0    0    0  0.00000000000E+00  0.00000000000E+00  0.11999999989E+02  0.12000000000E+02  0.51109989000E-03 0.  1.
     -623   -1    0    0    0    0  0.00000000000E+00  0.00000000000E+00  0.42561509872E-11  0.25126700000E+02  0.25126700000E+02 0. -1.
      622    2    1    2    0    0 -0.24097742519E-02 -0.48604785767E-02  0.11967493014E+02  0.11967994173E+02  0.10938945355E+00 0.  0.
       11    1    1    2    0    0  0.55085398736E-02 -0.16814465702E-02  0.31478125068E-01  0.32004763005E-01  0.51109989000E-03 0.  1.
     -623    1    1    2    0    0 -0.30987656217E-02  0.65419251469E-02  0.10288497772E-02  0.25126701064E+02  0.25126700000E+02 0. -1.
     -611    1    3    3    0    0  0.11349441995E-01 -0.44976784439E-01  0.94856033541E+01  0.94857220448E+01  0.10000000000E-01 0.  1.
      611    1    3    3    0    0 -0.13759216247E-01  0.40116305862E-01  0.24818896602E+01  0.24822721284E+01  0.10000000000E-01 0. -1.
</event>
<event>
 7   0  0.6206631E-02  0.9118800E+02  0.7818608E-02  0.1180000E+00
       11   -1    0    0    0    0  0.00000000000E+00  0.00000000000E+00  0.11999999989E+02  0.12000000000E+02  0.51109989000E-03 0. -1.
     -623   -1    0    0    0    0  0.00000000000E+00  0.00000000000E+00  0.42561509872E-11  0.25126700000E+02  0.25126700000E+02 0. -1.
      622    2    1    2    0    0 -0.67144404311E-02  0.32195052474E-01  0.10513839936E+02  0.10514376504E+02  0.10100225516E+00 0.  0.
       11    1    1    2    0    0  0.11017851431E-01 -0.30557966563E-01  0.14852677970E+01  0.14856230587E+01  0.51109989000E-03 0. -1.
     -623    1    1    2    0    0 -0.43034110003E-02 -0.16370859108E-02  0.89225611346E-03  0.25126700438E+02  0.25126700000E+02 0. -1.
     -611    1    3    3    0    0 -0.50997016437E-01  0.76098947925E-02  0.42670807908E+01  0.42674040214E+01  0.10000000000E-01 0. -1.
      611    1    3    3    0    0  0.44282576006E-01  0.24585157681E-01  0.62467591451E+01  0.62469724822E+01  0.10000000000E-01 0.  1.
</event>
<event>
 7   0  0.6206631E-02  0.9118800E+02  0.7818608E-02  0.1180000E+00
       11   -1    0    0    0    0  0.00000000000E+00  0.00000000000E+00  0.11999999989E+02  0.12000000000E+02  0.51109989000E-03 0. -1.
     -623   -1    0    0    0    0  0.00000000000E+00  0.00000000000E+00  0.42561509872E-11  0.25126700000E+02  0.25126700000E+02 0.  1.
      622    2    1    2    0    0  0.20970610883E-01 -0.17404682415E-01  0.11615402437E+02  0.11616032794E+02  0.11790425323E+00 0.  0.
       11    1    1    2    0    0 -0.11471327513E-01 -0.24026380350E-01  0.38300659057E+00  0.38393120211E+00  0.51109989000E-03 0. -1.
     -623    1    1    2    0    0 -0.94992833698E-02  0.41431062765E-01  0.15909613727E-02  0.25126736004E+02  0.25126700000E+02 0.  1.
     -611    1    3    3    0    0  0.22460898848E-01 -0.39569429538E-01  0.11058110782E+02  0.11058208910E+02  0.10000000000E-01 0. -1.
      611    1    3    3    0    0 -0.14902879652E-02  0.22164747123E-01  0.55729165533E+00  0.55782388446E+00  0.10000000000E-01 0.  1.
</event>
<event>
 7   0  0.6206631E-02  0.9118800E+02  0.7818608E-02  0.1180000E+00
       11   -1    0    0    0    0  0.00000000000E+00  0.00000000000E+00  0.11999999989E+02  0.12000000000E+02  0.51109989000E-03 0. -1.
     -623   -1    0    0    0    0  0.00000000000E+00  0.00000000000E+00  0.42561509872E-11  0.25126700000E+02  0.25126700000E+02 0. -1.
      622    2    1    2    0    0 -0.45397380959E-01 -0.31251913238E-01  0.64724713819E+01  0.64735198879E+01  0.10264670170E+00 0.  0.
       11    1    1    2    0    0  0.36686102772E-01  0.20178870193E-01  0.55263175017E+01  0.55264761329E+01  0.51109989000E-03 0. -1.
     -623    1    1    2    0    0  0.87112781870E-02  0.11073043045E-01  0.12111054937E-02  0.25126703979E+02  0.25126700000E+02 0. -1.
     -611    1    3    3    0    0 -0.10166378250E-01  0.29826433121E-01  0.36516734162E+01  0.36518230666E+01  0.10000000000E-01 0. -1.
      611    1    3    3    0    0 -0.35231002710E-01 -0.61078346359E-01  0.28207979658E+01  0.28216968213E+01  0.10000000000E-01 0. -1.
</event>
<event>
 7   0  0.6206631E-02  0.9118800E+02  0.7818608E-02  0.1180000E+00
       11   -1    0    0    0    0  0.00000000000E+00  0.00000000000E+00  0.11999999989E+02  0.12000000000E+02  0.51109989000E-03 0. -1.
     -623   -1    0    0    0    0  0.00000000000E+00  0.00000000000E+00  0.42561509872E-11  0.25126700000E+02  0.25126700000E+02 0.  1.
      622    2    1    2    0    0 -0.26795267638E-02  0.55713356492E-02  0.11950072991E+02  0.11950572885E+02  0.10913103945E+00 0.  0.
       11    1    1    2    0    0  0.56592088777E-02 -0.62493532906E-02  0.48699856760E-01  0.49426898884E-01  0.51109989000E-03 0. -1.
     -623    1    1    2    0    0 -0.29796821139E-02  0.67801764139E-03  0.12271416150E-02  0.25126700216E+02  0.25126700000E+02 0.  1.
     -611    1    3    3    0    0 -0.10929694470E-02 -0.49338716288E-01  0.42690401835E+01  0.42693371372E+01  0.10000000000E-01 0.  1.
      611    1    3    3    0    0 -0.15865573168E-02  0.54910051937E-01  0.76810328073E+01  0.76812357481E+01  0.10000000000E-01 0. -1.
</event>
<event>
 7   0  0.6206631E-02  0.9118800E+02  0.7818608E-02  0.1180000E+00
       11   -1    0    0    0    0  0.00000000000E+00  0.00000000000E+00  0.11999999989E+02  0.12000000000E+02  0.51109989000E-03 0. -1.
     -623   -1    0    0    0    0  0.00000000000E+00  0.00000000000E+00  0.42561509872E-11  0.25126700000E+02  0.25126700000E+02 0. -1.
      622    2    1    2    0    0  0.96978748256E-03 -0.45267519587E-02  0.85125812824E+01  0.85132090154E+01  0.10327738432E+00 0.  0.
       11    1    1    2    0    0  0.87981081133E-02  0.13979670778E-01  0.34867481367E+01  0.34867872989E+01  0.51109989000E-03 0. -1.
     -623    1    1    2    0    0 -0.97678955959E-02 -0.94529188190E-02  0.67057002258E-03  0.25126703686E+02  0.25126700000E+02 0. -1.
     -611    1    3    3    0    0 -0.31724457419E-01 -0.39198524338E-01  0.33015709853E+01  0.33019712198E+01  0.10000000000E-01 0.  1.
      611    1    3    3    0    0  0.32694244902E-01  0.34671772380E-01  0.52110102971E+01  0.52112377956E+01  0.10000000000E-01 0. -1.
</event>
<event>
 7   0  0.6206631E-02  0.9118800E+02  0.7818608E-02  0.1180000E+00
       11   -1    0    0    0    0  0.00000000000E+00  0.00000000000E+00  0.11999999989E+02  0.12000000000E+02  0.51109989000E-03 0.  1.
     -623   -1    0    0    0    0  0.00000000000E+00  0.00000000000E+00  0.42561509872E-11  0.25126700000E+02  0.25126700000E+02 0. -1.
      622    2    1    2    0    0  0.62616743448E-01 -0.27335964275E-01  0.25791904727E+01  0.25814870477E+01  0.84757131110E-01 0.  0.
       11    1    1    2    0    0 -0.52112910649E-01  0.20942787677E-01  0.94183423519E+01  0.94185098224E+01  0.51109989000E-03 0.  1.
     -623    1    1    2    0    0 -0.10503832799E-01  0.63931765981E-02  0.24671645199E-02  0.25126703130E+02  0.25126700000E+02 0. -1.
     -611    1    3    3    0    0  0.41300782529E-01 -0.25061424579E-01  0.24241947393E+01  0.24246966746E+01  0.10000000000E-01 0. -1.
      611    1    3    3    0    0  0.21315960919E-01 -0.22745396958E-02  0.15499573339E+00  0.15679037308E+00  0.10000000000E-01 0.  1.
</event>
<event>
 7   0  0.6206631E-02  0.9118800E+02  0.7818608E-02  0.1180000E+00
       11   -1    0    0    0    0  0.00000000000E+00  0.00000000000E+00  0.11999999989E+02  0.12000000000E+02  0.51109989000E-03 0. -1.
     -623   -1    0    0    0    0  0.00000000000E+00  0.00000000000E+00  0.42561509872E-11  0.25126700000E+02  0.25126700000E+02 0.  1.
      622    2    1    2    0    0  0.99781424068E-02  0.24872495188E-01  0.11906780082E+02  0.11907069101E+02  0.78514038615E-01 0.  0.
       11    1    1    2    0    0 -0.46690779878E-03 -0.15820478032E-01  0.91568212612E-01  0.92927414212E-01  0.51109989000E-03 0. -1.
     -623    1    1    2    0    0 -0.95112346081E-02 -0.90520171563E-02  0.16516948283E-02  0.25126703485E+02  0.25126700000E+02 0.  1.
     -611    1    3    3    0    0  0.17320037311E-01  0.88407229013E-02  0.88407055619E+00  0.88434093561E+00  0.10000000000E-01 0.  1.
      611    1    3    3    0    0 -0.73418949041E-02  0.16031772286E-01  0.11022709525E+02  0.11022728165E+02  0.10000000000E-01 0. -1.
</event>
<event>
 7   0  0.6206631E-02  0.9118800E+02  0.7818608E-02  0.1180000E+00
       11   -1    0    0    0    0  0.00000000000E+00  0.00000000000E+00  0.11999999989E+02  0.12000000000E+02  0.51109989000E-03 0.  1.
     -623   -1    0    0    0    0  0.00000000000E+00  0.00000000000E+00  0.42561509872E-11  0.25126700000E+02  0.25126700000E+02 0.  1.
      622    2    1    2    0    0  0.28576516484E-01  0.61192455643E-01  0.92318928216E+01  0.92325177494E+01  0.83533160732E-01 0.  0.
       11    1    1    2    0    0 -0.16039372512E-01 -0.71462355989E-01  0.27665076190E+01  0.27674769732E+01  0.51109989000E-03 0.  1.
     -623    1    1    2    0    0 -0.12537143972E-01  0.10269900346E-01  0.15995484935E-02  0.25126705277E+02  0.25126700000E+02 0.  1.
     -611    1    3    3    0    0 -0.48907538676E-02 -0.13421720219E-01  0.66425872462E+00  0.66448755841E+00  0.10000000000E-01 0. -1.
      611    1    3    3    0    0  0.33467270351E-01  0.74614175862E-01  0.85676340970E+01  0.85680301910E+01  0.10000000000E-01 0.  1.
</event>
<event>
 7   0  0.6206631E-02  0.9118800E+02  0.7818608E-02  0.1180000E+00
       11   -1    0    0    0    0  0.00000000000E+00  0.00000000000E+00  0.11999999989E+02  0.12000000000E+02  0.51109989000E-03 0. -1.
     -623   -1    0    0    0    0  0.00000000000E+00  0.00000000000E+00  0.42561509872E-11  0.25126700000E+02  0.25126700000E+02 0.  1.
      622    2    1    2    0    0  0.52884663199E-01 -0.21385058258E-01  0.77545597844E+01  0.77557729202E+01  0.12474787519E+00 0.  0.
       11    1    1    2    0    0 -0.55111865661E-01  0.24998143209E-01  0.42437951787E+01  0.42442266675E+01  0.51109989000E-03 0. -1.
     -623    1    1    2    0    0  0.22272024614E-02 -0.36130849511E-02  0.16450260729E-02  0.25126700412E+02  0.25126700000E+02 0.  1.
     -611    1    3    3    0    0  0.86769733739E-01 -0.20773648419E-01  0.67401154421E+01  0.67407133676E+01  0.10000000000E-01 0. -1.
      611    1    3    3    0    0 -0.33885070540E-01 -0.61140983896E-03  0.10144443422E+01  0.10150595526E+01  0.10000000000E-01 0.  1.
</event>
<event>
 7   0  0.6206631E-02  0.9118800E+02  0.7818608E-02  0.1180000E+00
       11   -1    0    0    0    0  0.00000000000E+00  0.00000000000E+00  0.11999999989E+02  0.12000000000E+02  0.51109989000E-03 0.  1.
     -623   -1    0    0    0    0  0.00000000000E+00  0.00000000000E+00  0.42561509872E-11  0.25126700000E+02  0.25126700000E+02 0.  1.
      622    2    1    2    0    0 -0.26307191972E-02 -0.15760160354E-02  0.11970334067E+02  0.11970530491E+02  0.68506541410E-01 0.  0.
       11    1    1    2    0    0  0.30524225823E-02 -0.27411888876E-03  0.29305186396E-01  0.29469434973E-01  0.51109989000E-03 0.  1.
     -623    1    1    2    0    0 -0.42170338512E-03  0.18501349242E-02  0.36073553702E-03  0.25126700074E+02  0.25126700000E+02 0.  1.
     -611    1    3    3    0    0  0.17574496666E-01 -0.26620000059E-01  0.71865354381E+01  0.71866131863E+01  0.10000000000E-01 0. -1.
      611    1    3    3    0    0 -0.20205215863E-01  0.25043984024E-01  0.47837986291E+01  0.47839173044E+01  0.10000000000E-01 0.  1.
</event>
<event>
 7   0  0.6206631E-02  0.9118800E+02  0.7818608E-02  0.1180000E+00
       11   -1    0    0    0    0  0.00000000000E+00  0.00000000000E+00  0.11999999989E+02  0.12000000000E+02  0.51109989000E-03 0. -1.
     -623   -1    0    0    0    0  0.00000000000E+00  0.00000000000E+00  0.42561509872E-11  0.25126700000E+02  0.25126700000E+02 0.  1.
      622    2    1    2    0    0 -0.65612483352E-02 -0.43744146357E-01  0.11217961443E+02  0.11218508615E+02  0.10158748811E+00 0.  0.
       11    1    1    2    0    0  0.74581491048E-02  0.43326879675E-01  0.78025351711E+00  0.78149130173E+00  0.51109989000E-03 0. -1.
     -623    1    1    2    0    0 -0.89690076952E-03  0.41726668238E-03  0.17850290548E-02  0.25126700083E+02  0.25126700000E+02 0.  1.
     -611    1    3    3    0    0 -0.36102343078E-01  0.18042269042E-01  0.41438815892E+01  0.41440901930E+01  0.10000000000E-01 0.  1.
      611    1    3    3    0    0  0.29541094743E-01 -0.61786415399E-01  0.70740798537E+01  0.70744184223E+01  0.10000000000E-01 0. -1.
</event>
<event>
 7   0  0.6206631E-02  0.9118800E+02  0.7818608E-02  0.1180000E+00
       11   -1    0    0    0    0  0.00000000000E+00  0.00000000000E+00  0.11999999989E+02  0.12000000000E+02  0.51109989000E-03 0.  1.
     -623   -1    0    0    0    0  0.00000000000E+00  0.00000000000E+00  0.42561509872E-11  0.25126700000E+02  0.25126700000E+02 0. -1.
      622    2    1    2    0    0  0.94830742578E-01  0.46169806443E-01  0.11861650326E+02  0.11862616000E+02  0.10856049901E+00 0.  0.
       11    1    1    2    0    0 -0.53739224109E-01 -0.32805112918E-01  0.12205885733E+00  0.13734156515E+00  0.51109989000E-03 0.  1.
     -623    1    1    2    0    0 -0.41091518469E-01 -0.13364693525E-01  0.16290806018E-01  0.25126742435E+02  0.25126700000E+02 0. -1.
     -611    1    3    3    0    0  0.77801921681E-01  0.51753483976E-01  0.11499932964E+02  0.11500316941E+02  0.10000000000E-01 0.  1.
      611    1    3    3    0    0  0.17028820897E-01 -0.55836775333E-02  0.36171736151E+00  0.36229905854E+00  0.10000000000E-01 0. -1.
</event>
<event>
 7   0  0.6206631E-02  0.9118800E+02  0.7818608E-02  0.1180000E+00
       11   -1    0    0    0    0  0.00000000000E+00  0.00000000000E+00  0.11999999989E+02  0.12000000000E+02  0.51109989000E-03 0.  1.
     -623   -1    0    0    0    0  0.00000000000E+00  0.00000000000E+00  0.42561509872E-11  0.25126700000E+02  0.25126700000E+02 0.  1.
      622    2    1    2    0    0  0.54815379570E-02  0.27091876717E-02  0.80724531959E+01  0.80728022631E+01  0.74822405891E-01 0.  0.
       11    1    1    2    0    0 -0.10622147542E-01  0.82357965499E-01  0.39261750746E+01  0.39270531753E+01  0.51109989000E-03 0.  1.
     -623    1    1    2    0    0  0.51406095853E-02 -0.85067153171E-01  0.13717186047E-02  0.25126844562E+02  0.25126700000E+02 0.  1.
     -611    1    3    3    0    0 -0.29811824822E-01  0.13038533875E-01  0.27124123465E+01  0.27126259392E+01  0.10000000000E-01 0.  1.
      611    1    3    3    0    0  0.35293362779E-01 -0.10329346203E-01  0.53600408494E+01  0.53601763240E+01  0.10000000000E-01 0. -1.
</event>
<event>
 7   0  0.6206631E-02  0.9118800E+02  0.7818608E-02  0.1180000E+00
       11   -1    0    0    0    0  0.00000000000E+00  0.00000000000E+00  0.11999999989E+02  0.12000000000E+02  0.51109989000E-03 0.  1.
     -623   -1    0    0    0    0  0.00000000000E+00  0.00000000000E+00  0.42561509872E-11  0.25126700000E+02  0.25126700000E+02 0. -1.
      622    2    1    2    0    0  0.18492162194E-01 -0.19205638581E-01  0.11307622408E+02  0.11308286409E+02  0.11960841456E+00 0.  0.
       11    1    1    2    0    0 -0.14195880937E-01  0.22838125939E-01  0.69118985651E+00  0.69171293323E+00  0.51109989000E-03 0.  1.
     -623    1    1    2    0    0 -0.42962812572E-02 -0.36324873575E-02  0.11877249285E-02  0.25126700658E+02  0.25126700000E+02 0. -1.
     -611    1    3    3    0    0 -0.15764151914E-01 -0.33767369858E-01  0.10048827882E+02  0.10048901958E+02  0.10000000000E-01 0.  1.
      611    1    3    3    0    0  0.34256314108E-01  0.14561731276E-01  0.12587945254E+01  0.12593844513E+01  0.10000000000E-01 0. -1.
</event>
<event>
 7   0  0.6206631E-02  0.9118800E+02  0.7818608E-02  0.1180000E+00
       11   -1    0    0    0    0  0.00000000000E+00  0.00000000000E+00  0.11999999989E+02  0.12000000000E+02  0.51109989000E-03 0. -1.
     -623   -1    0    0    0    0  0.00000000000E+00  0.00000000000E+00  0.42561509872E-11  0.25126700000E+02  0.25126700000E+02 0. -1.
      622    2    1    2    0    0  0.37909902189E-02 -0.48848780551E-02  0.11783719742E+02  0.11783927310E+02  0.69668072128E-01 0.  0.
       11    1    1    2    0    0 -0.47472922077E-02  0.32848171073E-02  0.21599488151E+00  0.21607261943E+00  0.51109989000E-03 0. -1.
     -623    1    1    2    0    0  0.95630198886E-03  0.16000609478E-02  0.28536515111E-03  0.25126700071E+02  0.25126700000E+02 0. -1.
     -611    1    3    3    0    0  0.14480637245E-01 -0.10145317762E-01  0.10509058364E+01  0.10511021326E+01  0.10000000000E-01 0.  1.
      611    1    3    3    0    0 -0.10689647026E-01  0.52604397069E-02  0.10732813906E+02  0.10732825177E+02  0.10000000000E-01 0. -1.
</event>
<event>
 7   0  0.6206631E-02  0.9118800E+02  0.7818608E-02  0.1180000E+00
       11   -1    0    0    0    0  0.00000000000E+00  0.00000000000E+00  0.11999999989E+02  0.12000000000E+02  0.51109989000E-03 0.  1.
     -623   -1    0    0    0    0  0.00000000000E+00  0.00000000000E+00  0.42561509872E-11  0.25126700000E+02  0.25126700000E+02 0.  1.
      622    2    1    2    0    0  0.10047226189E-02 -0.13360652548E-02  0.11988506094E+02  0.11988823138E+02  0.87172709398E-01 0.  0.
       11    1    1    2    0    0  0.39204735582E-04  0.13984948243E-02  0.11077144323E-01  0.11176836506E-01  0.51109989000E-03 0.  1.
     -623    1    1    2    0    0 -0.10439273545E-02 -0.62429569509E-04  0.41675083214E-03  0.25126700025E+02  0.25126700000E+02 0.  1.
     -611    1    3    3    0    0 -0.56894639420E-02  0.37927683365E-01  0.36343341717E+01  0.36345502817E+01  0.10000000000E-01 0. -1.
      611    1    3    3    0    0  0.66941865609E-02 -0.39263748619E-01  0.83541719223E+01  0.83542728566E+01  0.10000000000E-01 0.  1.
</event>
<event>
 7   0  0.6206631E-02  0.9118800E+02  0.7818608E-02  0.1180000E+00
       11   -1    0    0    0    0  0.00000000000E+00  0.00000000000E+00  0.11999999989E+02  0.12000000000E+02  0.51109989000E-03 0.  1.
     -623   -1    0    0    0    0  0.00000000000E+00  0.00000000000E+00  0.42561509872E-11  0.25126700000E+02  0.25126700000E+02 0.  1.
      622    2    1    2    0    0  0.18073460663E-01 -0.13527827679E-01  0.11714171951E+02  0.11714772383E+02  0.11643808146E+00 0.  0.
       11    1    1    2    0    0 -0.93480779533E-02  0.16363881159E-01  0.28460217248E+00  0.28522591217E+00  0.51109989000E-03 0.  1.
     -623    1    1    2    0    0 -0.87253827093E-02 -0.28360534803E-02  0.12258653477E-02  0.25126701705E+02  0.25126700000E+02 0.  1.
     -611    1    3    3    0    0 -0.17713186628E-01 -0.51692259464E-01  0.36307189191E+01  0.36311438579E+01  0.10000000000E-01 0. -1.
      611    1    3    3    0    0  0.35786647290E-01  0.38164431784E-01  0.80834530321E+01  0.80836285250E+01  0.10000000000E-01 0.  1.
</event>
<event>
 7   0  0.6206631E-02  0.9118800E+02  0.7818608E-02  0.1180000E+00
       11   -1    0    0    0    0  0.00000000000E+00  0.00000000000E+00  0.11999999989E+02  0.12000000000E+02  0.51109989000E-03 0.  1.
     -623   -1    0    0    0    0  0.00000000000E+00  0.00000000000E+00  0.42561509872E-11  0.25126700000E+02  0.25126700000E+02 0.  1.
      622    2    1    2    0    0  0.49432364577E-02  0.24983421526E-02  0.11961802869E+02  0.11962232958E+02  0.10128573909E+00 0.  0.
       11    1    1    2    0    0 -0.13328728648E-01  0.86439741736E-03  0.35320686628E-01  0.37765252777E-01  0.51109989000E-03 0.  1.
     -623    1    1    2    0    0  0.83854921899E-02 -0.33627395699E-02  0.28764337382E-02  0.25126701789E+02  0.25126700000E+02 0.  1.
     -611    1    3    3    0    0  0.16525503618E-01  0.36910612902E-01  0.98905086665E+01  0.98905964010E+01  0.10000000000E-01 0.  1.
      611    1    3    3    0    0 -0.11582267160E-01 -0.34412270749E-01  0.20712942022E+01  0.20716365573E+01  0.10000000000E-01 0.  1.
</event>
<event>
 7   0  0.6206631E-02  0.9118800E+02  0.7818608E-02  0.1180000E+00
       11   -1    0    0    0    0  0.00000000000E+00  0.00000000000E+00  0.11999999989E+02  0.12000000000E+02  0.51109989000E-03 0.  1.
     -623   -1    0    0    0    0  0.00000000000E+00  0.00000000000E+00  0.42561509872E-11  0.25126700000E+02  0.25126700000E+02 0. -1.
      622    2    1    2    0    0  0.16834699322E-02 -0.72278369017E-02  0.10591767103E+02  0.10592199352E+02  0.95402669446E-01 0.  0.
       11    1    1    2    0    0  0.45371071578E-03  0.44827160231E-02  0.14077931008E+01  0.14078004036E+01  0.51109989000E-03 0.  1.
     -623    1    1    2    0    0 -0.21371806480E-02  0.27451208786E-02  0.43978549445E-03  0.25126700245E+02  0.25126700000E+02 0. -1.
     -611    1    3    3    0    0 -0.37789261706E-01 -0.11336533303E-01  0.80490495290E+01  0.80491524315E+01  0.10000000000E-01 0.  1.
      611    1    3    3    0    0  0.39472731639E-01  0.41086964012E-02  0.25427175739E+01  0.25430469202E+01  0.10000000000E-01 0. -1.
</event>
<event>
 7   0  0.6206631E-02  0.9118800E+02  0.7818608E-02  0.1180000E+00
       11   -1    0    0    0    0  0.00000000000E+00  0.00000000000E+00  0.11999999989E+02  0.12000000000E+02  0.51109989000E-03 0.  1.
     -623   -1    0    0    0    0  0.00000000000E+00  0.00000000000E+00  0.42561509872E-11  0.25126700000E+02  0.25126700000E+02 0.  1.
      622    2    1    2    0    0 -0.40700971464E-02 -0.71091869310E-02  0.10994004109E+02  0.10994570054E+02  0.11125293179E+00 0.  0.
       11    1    1    2    0    0  0.44627052661E-02  0.74293693441E-02  0.10053924504E+01  0.10054299338E+01  0.51109989000E-03 0.  1.
     -623    1    1    2    0    0 -0.39260811970E-03 -0.32018241308E-03  0.60342977258E-03  0.25126700012E+02  0.25126700000E+02 0.  1.
     -611    1    3    3    0    0  0.19040787884E-01  0.45282308043E-01  0.64372802843E+01  0.64374754755E+01  0.10000000000E-01 0.  1.
      611    1    3    3    0    0 -0.23110885031E-01 -0.52391494974E-01  0.45567238247E+01  0.45570945783E+01  0.10000000000E-01 0. -1.
</event>
<event>
 7   0  0.6206631E-02  0.9118800E+02  0.7818608E-02  0.1180000E+00
       11   -1    0    0    0    0  0.00000000000E+00  0.00000000000E+00  0.11999999989E+02  0.12000000000E+02  0.51109989000E-03 0. -1.
     -623   -1    0    0    0    0  0.00000000000E+00  0.00000000000E+00  0.42561509872E-11  0.25126700000E+02  0.25126700000E+02 0. -1.
      622    2    1    2    0    0  0.70986138609E-02 -0.48982617924E-02  0.97327384343E+01  0.97331955157E+01  0.93931530947E-01 0.  0.
       11    1    1    2    0    0  0.73479995516E-02  0.38501014650E-02  0.22667850680E+01  0.22668003049E+01  0.51109989000E-03 0. -1.
     -623    1    1    2    0    0 -0.14446613413E-01  0.10481603274E-02  0.47648677564E-03  0.25126704179E+02  0.25126700000E+02 0. -1.
     -611    1    3    3    0    0 -0.77643715897E-02 -0.33561261003E-01  0.82251787332E+01  0.82252569465E+01  0.10000000000E-01 0. -1.
      611    1    3    3    0    0  0.14862985451E-01  0.28662999211E-01  0.15075597012E+01  0.15079385692E+01  0.10000000000E-01 0.  1.
</event>
<event>
 7   0  0.6206631E-02  0.9118800E+02  0.7818608E-02  0.1180000E+00
       11   -1    0    0    0    0  0.00000000000E+00  0.00000000000E+00  0.11999999989E+02  0.12000000000E+02  0.51109989000E-03 0. -1.
     -623   -1    0    0    0    0  0.00000000000E+00  0.00000000000E+00  0.42561509872E-11  0.25126700000E+02  0.25126700000E+02 0. -1.
      622    2    1    2    0    0  0.17806473057E-01  0.68356256691E-03  0.11245273554E+02  0.11246076535E+02  0.13320132431E+00 0.  0.
       11    1    1    2    0    0 -0.20039822574E-01 -0.14053425262E-03  0.75365676673E+00  0.75392333662E+00  0.51109989000E-03 0. -1.
     -623    1    1    2    0    0  0.22333495163E-02 -0.54302831429E-03  0.10696680666E-02  0.25126700128E+02  0.25126700000E+02 0. -1.
     -611    1    3    3    0    0 -0.18713546724E-02 -0.42315928391E-01  0.13831706923E+01  0.13838552323E+01  0.10000000000E-01 0.  1.
      611    1    3    3    0    0  0.19677827730E-01  0.42999490957E-01  0.98621028620E+01  0.98622213032E+01  0.10000000000E-01 0. -1.
</event>
<event>
 7   0  0.6206631E-02  0.9118800E+02  0.7818608E-02  0.1180000E+00
       11   -1    0    0    0    0  0.00000000000E+00  0.00000000000E+00  0.11999999989E+02  0.12000000000E+02  0.51109989000E-03 0.  1.
     -623   -1    0    0    0    0  0.00000000000E+00  0.00000000000E+00  0.42561509872E-11  0.25126700000E+02  0.25126700000E+02 0.  1.
      622    2    1    2    0    0  0.12811992926E-02 -0.45529309765E-03  0.11997792244E+02  0.11998229362E+02  0.10240731039E+00 0.  0.
       11    1    1    2    0    0  0.61971400025E-03 -0.11026200730E-02  0.11285437531E-02  0.17704944633E-02  0.51109989000E-03 0.  1.
     -623    1    1    2    0    0 -0.19009132929E-02  0.15579131706E-02  0.10792017506E-02  0.25126700143E+02  0.25126700000E+02 0.  1.
     -611    1    3    3    0    0  0.20702073872E-03 -0.39375464975E-01  0.97030644032E+01  0.97031494517E+01  0.10000000000E-01 0.  1.
      611    1    3    3    0    0  0.10741785539E-02  0.38920171877E-01  0.22947278404E+01  0.22950799104E+01  0.10000000000E-01 0. -1.
</event>
<event>
 7   0  0.6206631E-02  0.9118800E+02  0.7818608E-02  0.1180000E+00
       11   -1    0    0    0    0  0.00000000000E+00  0.00000000000E+00  0.11999999989E+02  0.12000000000E+02  0.51109989000E-03 0. -1.
     -623   -1    0    0    0    0  0.00000000000E+00  0.00000000000E+00  0.42561509872E-11  0.25126700000E+02  0.25126700000E+02 0. -1.
      622    2    1    2    0    0  0.14755067605E+00  0.73467022340E-01  0.10250439643E+02  0.10252562131E+02  0.12786227983E+00 0.  0.
       11    1    1    2    0    0 -0.94456447776E-01 -0.73768981584E-01  0.17432659452E+01  0.17473809831E+01  0.51109989000E-03 0. -1.
     -623    1    1    2    0    0 -0.53094228277E-01  0.30195924361E-03  0.62944004556E-02  0.25126756886E+02  0.25126700000E+02 0. -1.
     -611    1    3    3    0    0  0.17376334779E-01 -0.22025775093E-01  0.37211454295E+01  0.37212646210E+01  0.10000000000E-01 0.  1.
      611    1    3    3    0    0  0.13017434127E+00  0.95492797433E-01  0.65292942140E+01  0.65312975102E+01  0.10000000000E-01 0. -1.
</event>
<event>
 7   0  0.6206631E-02  0.9118800E+02  0.7818608E-02  0.1180000E+00
       11   -1    0    0    0    0  0.00000000000E+00  0.00000000000E+00  0.11999999989E+02  0.12000000000E+02  0.51109989000E-03 0.  1.
     -623   -1    0    0    0    0  0.00000000000E+00  0.00000000000E+00  0.42561509872E-11  0.25126700000E+02  0.25126700000E+02 0.  1.
      622    2    1    2    0    0  0.17168692580E-01  0.86790306239E-01  0.11659335028E+02  0.11660242141E+02  0.11543897905E+00 0.  0.
       11    1    1    2    0    0  0.15305999264E-01 -0.50337180122E-01  0.33561058540E+00  0.33970992268E+00  0.51109989000E-03 0.  1.
     -623    1    1    2    0    0 -0.32474691844E-01 -0.36453126117E-01  0.50543755379E-02  0.25126747937E+02  0.25126700000E+02 0.  1.
     -611    1    3    3    0    0 -0.26507806880E-03  0.10333218678E+00  0.63937084410E+01  0.63945512149E+01  0.10000000000E-01 0.  1.
      611    1    3    3    0    0  0.17433770649E-01 -0.16541880544E-01  0.52656265872E+01  0.52656909258E+01  0.10000000000E-01 0. -1.
</event>
<event>
 7   0  0.6206631E-02  0.9118800E+02  0.7818608E-02  0.1180000E+00
       11   -1    0    0    0    0  0.00000000000E+00  0.00000000000E+00  0.11999999989E+02  0.12000000000E+02  0.51109989000E-03 0. -1.
     -623   -1    0    0    0    0  0.00000000000E+00  0.00000000000E+00  0.42561509872E-11  0.25126700000E+02  0.25126700000E+02 0.  1.
      622    2    1    2    0    0 -0.74732039334E-02  0.58254022128E-04  0.11729718856E+02  0.11730201505E+02  0.10614641561E+00 0.  0.
       11    1    1    2    0    0  0.45597575154E-02 -0.64538099494E-04  0.26975929441E+00  0.26979832041E+00  0.51109989000E-03 0. -1.
     -623    1    1    2    0    0  0.29134464180E-02  0.62840773667E-05  0.52183873157E-03  0.25126700174E+02  0.25126700000E+02 0.  1.
     -611    1    3    3    0    0  0.34890385057E-01  0.28875902090E-01  0.33632163348E+01  0.33635361260E+01  0.10000000000E-01 0.  1.
      611    1    3    3    0    0 -0.42363588990E-01 -0.28817648068E-01  0.83665025212E+01  0.83666653792E+01  0.10000000000E-01 0. -1.
</event>
<event>
 7   0  0.6206631E-02  0.9118800E+02  0.7818608E-02  0.1180000E+00
       11   -1    0    0    0    0  0.00000000000E+00  0.00000000000E+00  0.11999999989E+02  0.12000000000E+02  0.51109989000E-03 0.  1.
     -623   -1    0    0    0    0  0.00000000000E+00  0.00000000000E+00  0.42561509872E-11  0.25126700000E+02  0.25126700000E+02 0. -1.
      622    2    1    2    0    0  0.62596177732E-02  0.84803958999E-02  0.11798452074E+02  0.11798711838E+02  0.77579630597E-01 0.  0.
       11    1    1    2    0    0 -0.10551276878E-01 -0.71335670274E-02  0.20088374745E+00  0.20128775034E+00  0.51109989000E-03 0.  1.
     -623    1    1    2    0    0  0.42916591046E-02 -0.13468288725E-02  0.66416761394E-03  0.25126700411E+02  0.25126700000E+02 0. -1.
     -611    1    3    3    0    0  0.82622226249E-02  0.28567491768E-02  0.34738346948E+00  0.34763731130E+00  0.10000000000E-01 0. -1.
      611    1    3    3    0    0 -0.20026048517E-02  0.56236467231E-02  0.11451068605E+02  0.11451074527E+02  0.10000000000E-01 0.  1.
</event>
<event>
 7   0  0.6206631E-02  0.9118800E+02  0.7818608E-02  0.1180000E+00
       11   -1    0    0    0    0  0.00000000000E+00  0.00000000000E+00  0.11999999989E+02  0.12000000000E+02  0.51109989000E-03 0.  1.
     -623   -1    0    0    0    0  0.00000000000E+00  0.00000000000E+00  0.42561509872E-11  0.25126700000E+02  0.25126700000E+02 0. -1.
      622    2    1    2    0    0  0.69799774458E-01  0.29334978149E-01  0.11503785635E+02  0.11504409904E+02  0.92901787768E-01 0.  0.
       11    1    1    2    0    0 -0.68103614759E-01 -0.42768480982E-01  0.48901676780E+00  0.49558541718E+00  0.51109989000E-03 0.  1.
     -623    1    1    2    0    0 -0.16961596985E-02  0.13433502832E-01  0.71975861059E-02  0.25126704679E+02  0.25126700000E+02 0. -1.
     -611    1    3    3    0    0  0.38845180058E-01  0.61701760415E-01  0.75134456512E+01  0.75138060667E+01  0.10000000000E-01 0.  1.
      611    1    3    3    0    0  0.30954594400E-01 -0.32366782266E-01  0.39903399841E+01  0.39906038370E+01  0.10000000000E-01 0. -1.
</event>
<event>
 7   0  0.6206631E-02  0.9118800E+02  0.7818608E-02  0.1180000E+00
       11   -1    0    0    0    0  0.00000000000E+00  0.00000000000E+00  0.11999999989E+02  0.12000000000E+02  0.51109989000E-03 0.  1.
     -623   -1    0    0    0    0  0.00000000000E+00  0.00000000000E+00  0.42561509872E-11  0.25126700000E+02  0.25126700000E+02 0. -1.
      622    2    1    2    0    0 -0.20397668793E-01  0.17164606625E-01  0.11372059381E+02  0.11372562426E+02  0.10358998402E+00 0.  0.
       11    1    1    2    0    0  0.48356122291E-02 -0.18810888945E-01  0.62713179111E+00  0.62743268749E+00  0.51109989000E-03 0.  1.
     -623    1    1    2    0    0  0.15562056564E-01  0.16462823202E-02  0.80881680410E-03  0.25126704886E+02  0.25126700000E+02 0. -1.
     -611    1    3    3    0    0 -0.19053600137E-02  0.42275698596E-01  0.21240676748E+01  0.21245127329E+01  0.10000000000E-01 0. -1.
      611    1    3    3    0    0 -0.18492308779E-01 -0.25111091971E-01  0.92479917064E+01  0.92480496936E+01  0.10000000000E-01 0.  1.
</event>
<event>
 7   0  0.6206631E-02  0.9118800E+02  0.7818608E-02  0.1180000E+00
       11   -1    0    0    0    0  0.00000000000E+00  0.00000000000E+00  0.11999999989E+02  0.12000000000E+02  0.51109989000E-03 0. -1.
     -623   -1    0    0    0    0  0.00000000000E+00  0.00000000000E+00  0.42561509872E-11  0.25126700000E+02  0.25126700000E+02 0.  1.
      622    2    1    2    0    0  0.23788615113E-01  0.47551956642E-02  0.74798082166E+01  0.74800948644E+01  0.60825270409E-01 0.  0.
       11    1    1    2    0    0 -0.11340533393E-01 -0.23793067738E-01  0.45198179564E+01  0.45198948370E+01  0.51109989000E-03 0. -1.
     -623    1    1    2    0    0 -0.12448081721E-01  0.19037872074E-01  0.37381609640E-03  0.25126710299E+02  0.25126700000E+02 0.  1.
     -611    1    3    3    0    0 -0.11925782776E-01  0.90261534384E-02  0.89500053621E+00  0.89518135344E+00  0.10000000000E-01 0.  1.
      611    1    3    3    0    0  0.35714397889E-01 -0.42709577742E-02  0.65848076804E+01  0.65849135110E+01  0.10000000000E-01 0. -1.
</event>
<event>
 7   0  0.6206631E-02  0.9118800E+02  0.7818608E-02  0.1180000E+00
       11   -1    0    0    0    0  0.00000000000E+00  0.00000000000E+00  0.11999999989E+02  0.12000000000E+02  0.51109989000E-03 0. -1.
     -623   -1    0    0    0    0  0.00000000000E+00  0.00000000000E+00  0.42561509872E-11  0.25126700000E+02  0.25126700000E+02 0.  1.
      622    2    1    2    0    0  0.71497950578E-03 -0.11644418810E-02  0.11972451138E+02  0.11972653924E+02  0.69669681038E-01 0.  0.
       11    1    1    2    0    0  0.60286181416E-03 -0.14467614242E-02  0.27296166645E-01  0.27345904586E-01  0.51109989000E-03 0. -1.
     -623    1    1    2    0    0 -0.13178413199E-02  0.26112033052E-02  0.25268454959E-03  0.25126700172E+02  0.25126700000E+02 0.  1.
     -611    1    3    3    0    0 -0.18139389779E-01 -0.27831551351E-01  0.51085756319E+01  0.51086934356E+01  0.10000000000E-01 0. -1.
      611    1    3    3    0    0  0.18854369284E-01  0.26667109470E-01  0.68638755060E+01  0.68639604883E+01  0.10000000000E-01 0.  1.
</event>
<event>
 7   0  0.6206631E-02  0.9118800E+02  0.7818608E-02  0.1180000E+00
       11   -1    0    0    0    0  0.00000000000E+00  0.00000000000E+00  0.11999999989E+02  0.12000000000E+02  0.51109989000E-03 0.  1.
     -623   -1    0    0    0    0  0.00000000000E+00  0.00000000000E+00  0.42561509872E-11  0.25126700000E+02  0.25126700000E+02 0. -1.
      622    2    1    2    0    0  0.56496083826E-01  0.91403723782E-03  0.76022937634E+01  0.76028038509E+01  0.67552116588E-01 0.  0.
       11    1    1    2    0    0 -0.68510076343E-01  0.62579630591E-02  0.43966540080E+01  0.43971922314E+01  0.51109989000E-03 0.  1.
     -623    1    1    2    0    0  0.12013992518E-01 -0.71720002969E-02  0.10522178644E-02  0.25126703918E+02  0.25126700000E+02 0. -1.
     -611    1    3    3    0    0  0.12742558399E-01 -0.13214609566E-01  0.62141926031E+00  0.62177077430E+00  0.10000000000E-01 0.  1.
      611    1    3    3    0    0  0.43753525427E-01  0.14128646804E-01  0.69808745031E+01  0.69810330766E+01  0.10000000000E-01 0.  1.
</event>
<event>
 7   0  0.6206631E-02  0.9118800E+02  0.7818608E-02  0.1180000E+00
       11   -1    0    0    0    0  0.00000000000E+00  0.00000000000E+00  0.11999999989E+02  0.12000000000E+02  0.51109989000E-03 0. -1.
     -623   -1    0    0    0    0  0.00000000000E+00  0.00000000000E+00  0.42561509872E-11  0.25126700000E+02  0.25126700000E+02 0. -1.
      622    2    1    2    0    0  0.72044936807E-01 -0.87422604795E-01  0.68670533449E+01  0.68685272644E+01  0.86092712555E-01 0.  0.
       11    1    1    2    0    0 -0.14679701458E+00  0.89562605759E-01  0.51284788366E+01  0.51313610536E+01  0.51109989000E-03 0. -1.
     -623    1    1    2    0    0  0.74752077777E-01 -0.21400009640E-02  0.44678076435E-02  0.25126811682E+02  0.25126700000E+02 0. -1.
     -611    1    3    3    0    0  0.71461793546E-01 -0.65526943076E-01  0.34170265109E+01  0.34184164088E+01  0.10000000000E-01 0. -1.
      611    1    3    3    0    0  0.58314326109E-03 -0.21895661719E-01  0.34500268341E+01  0.34501108556E+01  0.10000000000E-01 0.  1.
</event>
<event>
 7   0  0.6206631E-02  0.9118800E+02  0.7818608E-02  0.1180000E+00
       11   -1    0    0    0    0  0.00000000000E+00  0.00000000000E+00  0.11999999989E+02  0.12000000000E+02  0.51109989000E-03 0. -1.
     -623   -1    0    0    0    0  0.00000000000E+00  0.00000000000E+00  0.42561509872E-11  0.25126700000E+02  0.25126700000E+02 0.  1.
      622    2    1    2    0    0  0.36520109965E-01 -0.13546543397E-01  0.10758401310E+02  0.10758906287E+02  0.96687710172E-01 0.  0.
       11    1    1    2    0    0 -0.30333269666E-01  0.10832373687E-02  0.12407185262E+01  0.12410898449E+01  0.51109989000E-03 0. -1.
     -623    1    1    2    0    0 -0.61868402993E-02  0.12463306028E-01  0.88015270974E-03  0.25126703868E+02  0.25126700000E+02 0.  1.
     -611    1    3    3    0    0  0.44929773411E-01 -0.42567502030E-01  0.46573940108E+01  0.46578159741E+01  0.10000000000E-01 0.  1.
      611    1    3    3    0    0 -0.84096634464E-02  0.29020958633E-01  0.61010072994E+01  0.61010903129E+01  0.10000000000E-01 0. -1.
</event>
<event>
 7   0  0.6206631E-02  0.9118800E+02  0.7818608E-02  0.1180000E+00
       11   -1    0    0    0    0  0.00000000000E+00  0.00000000000E+00  0.11999999989E+02  0.12000000000E+02  0.51109989000E-03 0. -1.
     -623   -1    0    0    0    0  0.00000000000E+00  0.00000000000E+00  0.42561509872E-11  0.25126700000E+02  0.25126700000E+02 0. -1.
      622    2    1    2    0    0 -0.13141646247E-01 -0.19811242581E-02  0.11334180736E+02  0.11334280479E+02  0.45655224383E-01 0.  0.
       11    1    1    2    0    0  0.38051112976E-02  0.44432949719E-02  0.66569176554E+00  0.66571766513E+00  0.51109989000E-03 0. -1.
     -623    1    1    2    0    0  0.93365349495E-02 -0.24621707138E-02  0.12748760411E-03  0.25126701856E+02  0.25126700000E+02 0. -1.
     -611    1    3    3    0    0 -0.87577536566E-02 -0.15019782792E-01  0.94933150265E+01  0.94933362147E+01  0.10000000000E-01 0. -1.
      611    1    3    3    0    0 -0.43838925906E-02  0.13038658534E-01  0.18408657094E+01  0.18409442646E+01  0.10000000000E-01 0.  1.
</event>
<event>
 7   0  0.6206631E-02  0.9118800E+02  0.7818608E-02  0.1180000E+00
       11   -1    0    0    0    0  0.00000000000E+00  0.00000000000E+00  0.11999999989E+02  0.12000000000E+02  0.51109989000E-03 0. -1.
     -623   -1    0    0    0    0  0.00000000000E+00  0.00000000000E+00  0.42561509872E-11  0.25126700000E+02  0.25126700000E+02 0. -1.
      622    2    1    2    0    0 -0.12915830464E-02 -0.87845895504E-02  0.11936785290E+02  0.11937251780E+02  0.10515785555E+00 0.  0.
       11    1    1    2    0    0  0.38440970961E-03 -0.55391593559E-02  0.62495856832E-01  0.62744110492E-01  0.51109989000E-03 0. -1.
     -623    1    1    2    0    0  0.90717333682E-03  0.14323748906E-01  0.71884265576E-03  0.25126704109E+02  0.25126700000E+02 0. -1.
     -611    1    3    3    0    0 -0.24198869458E-01 -0.47298140945E-01  0.44994581228E+01  0.44997828945E+01  0.10000000000E-01 0. -1.
      611    1    3    3    0    0  0.22907286412E-01  0.38513551394E-01  0.74373271669E+01  0.74374688857E+01  0.10000000000E-01 0.  1.
</event>
<event>
 7   0  0.6206631E-02  0.9118800E+02  0.7818608E-02  0.1180000E+00
       11   -1    0    0    0    0  0.00000000000E+00  0.00000000000E+00  0.11999999989E+02  0.12000000000E+02  0.51109989000E-03 0. -1.
     -623   -1    0    0    0    0  0.00000000000E+00  0.00000000000E+00  0.42561509872E-11  0.25126700000E+02  0.25126700000E+02 0. -1.
      622    2    1    2    0    0  0.58604147446E-02  0.82920363579E-03  0.11933465036E+02  0.11933848992E+02  0.95545713577E-01 0.  0.
       11    1    1    2    0    0  0.23043676582E-03 -0.21129388994E-02  0.66114102229E-01  0.66150233171E-01  0.51109989000E-03 0. -1.
     -623    1    1    2    0    0 -0.60908515104E-02  0.12837352636E-02  0.42085131978E-03  0.25126700775E+02  0.25126700000E+02 0. -1.
     -611    1    3    3    0    0  0.30402894947E-01 -0.37391755956E-01  0.61485876719E+01  0.61487846635E+01  0.10000000000E-01 0.  1.
      611    1    3    3    0    0 -0.24542480202E-01  0.38220959591E-01  0.57848773637E+01  0.57850643288E+01  0.10000000000E-01 0. -1.
</event>
<event>
 7   0  0.6206631E-02  0.9118800E+02  0.7818608E-02  0.1180000E+00
       11   -1    0    0    0    0  0.00000000000E+00  0.00000000000E+00  0.11999999989E+02  0.12000000000E+02  0.51109989000E-03 0. -1.
     -623   -1    0    0    0    0  0.00000000000E+00  0.00000000000E+00  0.42561509872E-11  0.25126700000E+02  0.25126700000E+02 0. -1.
      622    2    1    2    0    0  0.65851357872E-02 -0.75405390262E-03  0.11834326566E+02  0.11834695478E+02  0.93208738333E-01 0.  0.
       11    1    1    2    0    0 -0.56905905282E-02  0.23279888888E-02  0.16518928010E+00  0.16530445195E+00  0.51109989000E-03 0. -1.
     -623    1    1    2    0    0 -0.89454525899E-03 -0.15739349862E-02  0.48414350200E-03  0.25126700070E+02  0.25126700000E+02 0. -1.
     -611    1    3    3    0    0  0.25562461895E-01  0.14241213832E-01  0.14227545396E+01  0.14230905563E+01  0.10000000000E-01 0.  1.
      611    1    3    3    0    0 -0.18977326108E-01 -0.14995267735E-01  0.10411572026E+02  0.10411604922E+02  0.10000000000E-01 0. -1.
</event>
<event>
 7   0  0.6206631E-02  0.9118800E+02  0.7818608E-02  0.1180000E+00
       11   -1    0    0    0    0  0.00000000000E+00  0.00000000000E+00  0.11999999989E+02  0.12000000000E+02  0.51109989000E-03 0.  1.
     -623   -1    0    0    0    0  0.00000000000E+00  0.00000000000E+00  0.42561509872E-11  0.25126700000E+02  0.25126700000E+02 0.  1.
      622    2    1    2    0    0  0.31179345584E-02 -0.37650682024E-02  0.11589955887E+02  0.11590198717E+02  0.74866140253E-01 0.  0.
       11    1    1    2    0    0  0.31582279579E-02 -0.18419514897E-01  0.40936401963E+00  0.40979069624E+00  0.51109989000E-03 0.  1.
     -623    1    1    2    0    0 -0.62761625163E-02  0.22184583100E-01  0.68008221133E-03  0.25126710587E+02  0.25126700000E+02 0.  1.
     -611    1    3    3    0    0 -0.24795856034E-01 -0.19730108130E-01  0.83865492250E+01  0.83866150511E+01  0.10000000000E-01 0.  1.
      611    1    3    3    0    0  0.27913790593E-01  0.15965039928E-01  0.32034066623E+01  0.32035836662E+01  0.10000000000E-01 0. -1.
</event>
<event>
 7   0  0.6206631E-02  0.9118800E+02  0.7818608E-02  0.1180000E+00
       11   -1    0    0    0    0  0.00000000000E+00  0.00000000000E+00  0.11999999989E+02  0.12000000000E+02  0.51109989000E-03 0. -1.
     -623   -1    0    0    0    0  0.00000000000E+00  0.00000000000E+00  0.42561509872E-11  0.25126700000E+02  0.25126700000E+02 0. -1.
      622    2    1    2    0    0 -0.56914854421E-01 -0.62441830614E-02  0.64413724263E+01  0.64424663576E+01  0.10399876831E+00 0.  0.
       11    1    1    2    0    0  0.57228061423E-01  0.21385403686E-01  0.55571932083E+01  0.55575290375E+01  0.51109989000E-03 0. -1.
     -623    1    1    2    0    0 -0.31320700226E-03 -0.15141220625E-01  0.14343544555E-02  0.25126704605E+02  0.25126700000E+02 0. -1.
     -611    1    3    3    0    0 -0.27518443894E-01  0.32624389667E-01  0.11146821571E+01  0.11155437808E+01  0.10000000000E-01 0.  1.
      611    1    3    3    0    0 -0.29396410526E-01 -0.38868572728E-01  0.53266902693E+01  0.53269225768E+01  0.10000000000E-01 0. -1.
</event>
<event>
 7   0  0.6206631E-02  0.9118800E+02  0.7818608E-02  0.1180000E+00
       11   -1    0    0    0    0  0.00000000000E+00  0.00000000000E+00  0.11999999989E+02  0.12000000000E+02  0.51109989000E-03 0. -1.
     -623   -1    0    0    0    0  0.00000000000E+00  0.00000000000E+00  0.42561509872E-11  0.25126700000E+02  0.25126700000E+02 0.  1.
      622    2    1    2    0    0  0.35764261863E-01 -0.39684286770E-01  0.11191773715E+02  0.11191970453E+02  0.39367772244E-01 0.  0.
       11    1    1    2    0    0 -0.33205932256E-01  0.38184669785E-01  0.80644305389E+00  0.80802930847E+00  0.51109989000E-03 0. -1.
     -623    1    1    2    0    0 -0.25583296065E-02  0.14996169844E-02  0.17832205623E-02  0.25126700238E+02  0.25126700000E+02 0.  1.
     -611    1    3    3    0    0  0.31333154161E-01 -0.43460633386E-01  0.88045888426E+01  0.88047575368E+01  0.10000000000E-01 0. -1.
      611    1    3    3    0    0  0.44311077022E-02  0.37763466164E-02  0.23871848721E+01  0.23872129166E+01  0.10000000000E-01 0. -1.
</event>
<event>
 6   0  0.6206631E-02  0.9118800E+02  0.7818608E-02  0.1180000E+00
       11   -1    0    0    0    0  0.00000000000E+00  0.00000000000E+00  0.11999999989E+02  0.12000000000E+02  0.51109989000E-03 0. -1.
     -623   -1    0    0    0    0  0.00000000000E+00  0.00000000000E+00  0.42561509872E-11  0.25126700000E+02  0.25126700000E+02 0.  1.
       11    1    1    2    0    0 -0.51266404269E-01 -0.35180338554E-01  0.36182791171E+01  0.36188133318E+01  0.51109989000E-03 0. -1.
     -623    1    1    2    0    0  0.20392592903E-01  0.64681870818E-03  0.57127605604E-02  0.25126708933E+02  0.25126700000E+02 0.  1.
     -611    1    1    2    0    0 -0.28788129296E-01 -0.11968558663E+00  0.43720971866E+01  0.43738412414E+01  0.10000000000E-01 0. -1.
      611    1    1    2    0    0  0.59661940663E-01  0.15421910648E+00  0.40039109249E+01  0.40073364938E+01  0.10000000000E-01 0.  1.
</event>
<event>
 7   0  0.6206631E-02  0.9118800E+02  0.7818608E-02  0.1180000E+00
       11   -1    0    0    0    0  0.00000000000E+00  0.00000000000E+00  0.11999999989E+02  0.12000000000E+02  0.51109989000E-03 0.  1.
     -623   -1    0    0    0    0  0.00000000000E+00  0.00000000000E+00  0.42561509872E-11  0.25126700000E+02  0.25126700000E+02 0. -1.
      622    2    1    2    0    0 -0.52824514300E-02 -0.28341492029E-02  0.11974899800E+02  0.11975206496E+02  0.85495431657E-01 0.  0.
       11    1    1    2    0    0  0.56846025075E-02  0.47590131938E-02  0.23653495049E-01  0.24793385477E-01  0.51109989000E-03 0.  1.
     -623    1    1    2    0    0 -0.40215107746E-03 -0.19248639909E-02  0.14466942975E-02  0.25126700119E+02  0.25126700000E+02 0. -1.
     -611    1    3    3    0    0 -0.11662766715E-01 -0.38041989581E-01  0.37833179571E+01  0.37835404026E+01  0.10000000000E-01 0.  1.
      611    1    3    3    0    0  0.63803152845E-02  0.35207840378E-01  0.81915818427E+01  0.81916660934E+01  0.10000000000E-01 0.  1.
</event>
<event>
 7   0  0.6206631E-02  0.9118800E+02  0.7818608E-02  0.1180000E+00
       11   -1    0    0    0    0  0.00000000000E+00  0.00000000000E+00  0.11999999989E+02  0.12000000000E+02  0.51109989000E-03 0. -1.
     -623   -1    0    0    0    0  0.00000000000E+00  0.00000000000E+00  0.42561509872E-11  0.25126700000E+02  0.25126700000E+02 0.  1.
      622    2    1    2    0    0  0.16005897591E-01 -0.56349248134E-02  0.11132898276E+02  0.11133397161E+02  0.10402105625E+00 0.  0.
       11    1    1    2    0    0 -0.15443803834E-01  0.48139938939E-02  0.86645166287E+00  0.86660281036E+00  0.51109989000E-03 0. -1.
     -623    1    1    2    0    0 -0.56209375658E-03  0.82093091943E-03  0.65004973992E-03  0.25126700028E+02  0.25126700000E+02 0.  1.
     -611    1    3    3    0    0  0.31632314048E-01  0.18851306605E-01  0.16201169265E+01  0.16205662067E+01  0.10000000000E-01 0.  1.
      611    1    3    3    0    0 -0.15626416458E-01 -0.24486231419E-01  0.95127813500E+01  0.95128309548E+01  0.10000000000E-01 0. -1.
</event>
<event>
 7   0  0.6206631E-02  0.9118800E+02  0.7818608E-02  0.1180000E+00
       11   -1    0    0    0    0  0.00000000000E+00  0.00000000000E+00  0.11999999989E+02  0.12000000000E+02  0.51109989000E-03 0. -1.
     -623   -1    0    0    0    0  0.00000000000E+00  0.00000000000E+00  0.42561509872E-11  0.25126700000E+02  0.25126700000E+02 0. -1.
      622    2    1    2    0    0 -0.65301500962E-02  0.62160264459E-02  0.11960306430E+02  0.11961031182E+02  0.13136116334E+00 0.  0.
       11    1    1    2    0    0  0.97616628145E-02  0.16580922460E-02  0.37684872027E-01  0.38967295693E-01  0.51109989000E-03 0. -1.
     -623    1    1    2    0    0 -0.32315127183E-02 -0.78741186919E-02  0.20086866496E-02  0.25126701522E+02  0.25126700000E+02 0. -1.
     -611    1    3    3    0    0  0.41410909615E-02  0.41099964869E-01  0.10845412414E+02  0.10845495691E+02  0.10000000000E-01 0. -1.
      611    1    3    3    0    0 -0.10671241058E-01 -0.34883938423E-01  0.11148940168E+01  0.11155354917E+01  0.10000000000E-01 0.  1.
</event>
<event>
 7   0  0.6206631E-02  0.9118800E+02  0.7818608E-02  0.1180000E+00
       11   -1    0    0    0    0  0.00000000000E+00  0.00000000000E+00  0.11999999989E+02  0.12000000000E+02  0.51109989000E-03 0.  1.
     -623   -1    0    0    0    0  0.00000000000E+00  0.00000000000E+00  0.42561509872E-11  0.25126700000E+02  0.25126700000E+02 0. -1.
      622    2    1    2    0    0 -0.79754183290E-02  0.13943363167E-02  0.96538815453E+01  0.96543964904E+01  0.99383856416E-01 0.  0.
       11    1    1    2    0    0  0.11328454649E-01 -0.96430063457E-04  0.23455758324E+01  0.23456032465E+01  0.51109989000E-03 0.  1.
     -623    1    1    2    0    0 -0.33530363196E-02 -0.12979062533E-02  0.54261137339E-03  0.25126700263E+02  0.25126700000E+02 0. -1.
     -611    1    3    3    0    0 -0.44844857894E-01 -0.40567181838E-02  0.25979629620E+01  0.25983723887E+01  0.10000000000E-01 0. -1.
      611    1    3    3    0    0  0.36869439565E-01  0.54510545005E-02  0.70559185833E+01  0.70560241017E+01  0.10000000000E-01 0.  1.
</event>
<event>
 7   0  0.6206631E-02  0.9118800E+02  0.7818608E-02  0.1180000E+00
       11   -1    0    0    0    0  0.00000000000E+00  0.00000000000E+00  0.11999999989E+02  0.12000000000E+02  0.51109989000E-03 0.  1.
     -623   -1    0    0    0    0  0.00000000000E+00  0.00000000000E+00  0.42561509872E-11  0.25126700000E+02  0.25126700000E+02 0.  1.
      622    2    1    2    0    0  0.28079524644E-01  0.44595185889E-02  0.10182132006E+02  0.10182621057E+02  0.95661174730E-01 0.  0.
       11    1    1    2    0    0  0.56905390430E-02 -0.13048355266E-01  0.18172989502E+01  0.18173547748E+01  0.51109989000E-03 0.  1.
     -623    1    1    2    0    0 -0.33770063687E-01  0.85888366769E-02  0.56903261441E-03  0.25126724168E+02  0.25126700000E+02 0.  1.
     -611    1    3    3    0    0 -0.14779879527E-01 -0.26559950649E-01  0.15987896858E+01  0.15991098572E+01  0.10000000000E-01 0. -1.
      611    1    3    3    0    0  0.42859404171E-01  0.31019469238E-01  0.85833423204E+01  0.85835112003E+01  0.10000000000E-01 0.  1.
</event>
<event>
 7   0  0.6206631E-02  0.9118800E+02  0.7818608E-02  0.1180000E+00
       11   -1    0    0    0    0  0.00000000000E+00  0.00000000000E+00  0.11999999989E+02  0.12000000000E+02  0.51109989000E-03 0.  1.
     -623   -1    0    0    0    0  0.00000000000E+00  0.00000000000E+00  0.42561509872E-11  0.25126700000E+02  0.25126700000E+02 0.  1.
      622    2    1    2    0    0 -0.73939582119E-02  0.31788021736E-02  0.11000253439E+02  0.11001726823E+02  0.17986825211E+00 0.  0.
       11    1    1    2    0    0  0.13273340812E-01 -0.14380795361E-01  0.99807796145E+00  0.99826993705E+00  0.51109989000E-03 0.  1.
     -623    1    1    2    0    0 -0.58793825998E-02  0.11201993187E-01  0.16685889135E-02  0.25126703240E+02  0.25126700000E+02 0.  1.
     -611    1    3    3    0    0  0.67918453741E-01 -0.10148230909E-01  0.21142307118E+01  0.21153693308E+01  0.10000000000E-01 0. -1.
      611    1    3    3    0    0 -0.75312411953E-01  0.13327033083E-01  0.88860227270E+01  0.88863574919E+01  0.10000000000E-01 0.  1.
</event>
<event>
 7   0  0.6206631E-02  0.9118800E+02  0.7818608E-02  0.1180000E+00
       11   -1    0    0    0    0  0.00000000000E+00  0.00000000000E+00  0.11999999989E+02  0.12000000000E+02  0.51109989000E-03 0.  1.
     -623   -1    0    0    0    0  0.00000000000E+00  0.00000000000E+00  0.42561509872E-11  0.25126700000E+02  0.25126700000E+02 0.  1.
      622    2    1    2    0    0 -0.10854138329E-02  0.11782005338E-01  0.11846502517E+02  0.11846902302E+02  0.96603753465E-01 0.  0.
       11    1    1    2    0    0  0.12576509324E-01 -0.30166986024E-02  0.15254539175E+00  0.15309352313E+00  0.51109989000E-03 0.  1.
     -623    1    1    2    0    0 -0.11491095491E-01 -0.87653067357E-02  0.95208045941E-03  0.25126704174E+02  0.25126700000E+02 0.  1.
     -611    1    3    3    0    0 -0.21538213877E-01  0.37421381547E-01  0.29423961099E+01  0.29427298758E+01  0.10000000000E-01 0. -1.
      611    1    3    3    0    0  0.20452800044E-01 -0.25639376209E-01  0.89041064070E+01  0.89041724265E+01  0.10000000000E-01 0.  1.
</event>
<event>
 7   0  0.6206631E-02  0.9118800E+02  0.7818608E-02  0.1180000E+00
       11   -1    0    0    0    0  0.00000000000E+00  0.00000000000E+00  0.11999999989E+02  0.12000000000E+02  0.51109989000E-03 0.  1.
     -623   -1    0    0    0    0  0.00000000000E+00  0.00000000000E+00  0.42561509872E-11  0.25126700000E+02  0.25126700000E+02 0.  1.
      622    2    1    2    0    0 -0.99688352573E-02  0.19294303781E-01  0.98152347627E+01  0.98156097320E+01  0.83001902081E-01 0.  0.
       11    1    1    2    0    0  0.10554810811E-01 -0.13549037347E-01  0.21843220194E+01  0.21843896004E+01  0.51109989000E-03 0.  1.
     -623    1    1    2    0    0 -0.58597555396E-03 -0.57452664348E-02  0.44320691903E-03  0.25126700668E+02  0.25126700000E+02 0.  1.
     -611    1    3    3    0    0 -0.40771475923E-01  0.29742854235E-01  0.63140264823E+01  0.63142360876E+01  0.10000000000E-01 0.  1.
      611    1    3    3    0    0  0.30802640666E-01 -0.10448550454E-01  0.35012082804E+01  0.35013736444E+01  0.10000000000E-01 0. -1.
</event>
<event>
 7   0  0.6206631E-02  0.9118800E+02  0.7818608E-02  0.1180000E+00
       11   -1    0    0    0    0  0.00000000000E+00  0.00000000000E+00  0.11999999989E+02  0.12000000000E+02  0.51109989000E-03 0. -1.
     -623   -1    0    0    0    0  0.00000000000E+00  0.00000000000E+00  0.42561509872E-11  0.25126700000E+02  0.25126700000E+02 0. -1.
      622    2    1    2    0    0  0.14647497723E-01  0.15453493456E-01  0.11082552174E+02  0.11082935603E+02  0.89696897187E-01 0.  0.
       11    1    1    2    0    0 -0.14702347109E-01 -0.11636599562E-02  0.91694158540E+00  0.91706032810E+00  0.51109989000E-03 0. -1.
     -623    1    1    2    0    0  0.54849386443E-04 -0.14289833500E-01  0.50622947141E-03  0.25126704069E+02  0.25126700000E+02 0. -1.
     -611    1    3    3    0    0 -0.86112607307E-02 -0.35548807029E-02  0.97422169095E+01  0.97422264962E+01  0.10000000000E-01 0. -1.
      611    1    3    3    0    0  0.23258758453E-01  0.19008374159E-01  0.13403352647E+01  0.13407091072E+01  0.10000000000E-01 0.  1.
</event>
<event>
 7   0  0.6206631E-02  0.9118800E+02  0.7818608E-02  0.1180000E+00
       11   -1    0    0    0    0  0.00000000000E+00  0.00000000000E+00  0.11999999989E+02  0.12000000000E+02  0.51109989000E-03 0.  1.
     -623   -1    0    0    0    0  0.00000000000E+00  0.00000000000E+00  0.42561509872E-11  0.25126700000E+02  0.25126700000E+02 0.  1.
      622    2    1    2    0    0 -0.46067674150E-02 -0.90417233291E-03  0.11990113299E+02  0.11990630967E+02  0.11131941759E+00 0.  0.
       11    1    1    2    0    0  0.27778657286E-02 -0.32826510671E-02  0.83076178424E-02  0.93685683749E-02  0.51109989000E-03 0.  1.
     -623    1    1    2    0    0  0.18289016865E-02  0.41868234000E-02  0.15790721791E-02  0.25126700465E+02  0.25126700000E+02 0.  1.
     -611    1    3    3    0    0  0.12908113239E-01 -0.50095088745E-01  0.40997904715E+01  0.41001290281E+01  0.10000000000E-01 0. -1.
      611    1    3    3    0    0 -0.17514880654E-01  0.49190916412E-01  0.78903228276E+01  0.78905019385E+01  0.10000000000E-01 0.  1.
</event>
<event>
 7   0  0.6206631E-02  0.9118800E+02  0.7818608E-02  0.1180000E+00
       11   -1    0    0    0    0  0.00000000000E+00  0.00000000000E+00  0.11999999989E+02  0.12000000000E+02  0.51109989000E-03 0.  1.
     -623   -1    0    0    0    0  0.00000000000E+00  0.00000000000E+00  0.42561509872E-11  0.25126700000E+02  0.25126700000E+02 0. -1.
      622    2    1    2    0    0 -0.34240322436E-02  0.64973761987E-02  0.11719391645E+02  0.11719848961E+02  0.10327241314E+00 0.  0.
       11    1    1    2    0    0  0.27150925681E-02 -0.86236616852E-02  0.28000454325E+00  0.28015093206E+00  0.51109989000E-03 0.  1.
     -623    1    1    2    0    0  0.70893967546E-03  0.21262854865E-02  0.60380078391E-03  0.25126700107E+02  0.25126700000E+02 0. -1.
     -611    1    3    3    0    0  0.48682603339E-01  0.30505879901E-02  0.62840465063E+01  0.62842437728E+01  0.10000000000E-01 0.  1.
      611    1    3    3    0    0 -0.52106635583E-01  0.34467882085E-02  0.54353451388E+01  0.54356051880E+01  0.10000000000E-01 0. -1.
</event>
<event>
 7   0  0.6206631E-02  0.9118800E+02  0.7818608E-02  0.1180000E+00
       11   -1    0    0    0    0  0.00000000000E+00  0.00000000000E+00  0.11999999989E+02  0.12000000000E+02  0.51109989000E-03 0.  1.
     -623   -1    0    0    0    0  0.00000000000E+00  0.00000000000E+00  0.42561509872E-11  0.25126700000E+02  0.25126700000E+02 0. -1.
      622    2    1    2    0    0  0.59610998999E-01 -0.13617231423E-01  0.11147758742E+02  0.11148367488E+02  0.99165477904E-01 0.  0.
       11    1    1    2    0    0  0.11892599683E-02  0.13182216738E-01  0.85145591417E+00  0.85155893523E+00  0.51109989000E-03 0.  1.
     -623    1    1    2    0    0 -0.60800258967E-01  0.43501468479E-03  0.78533339078E-03  0.25126773577E+02  0.25126700000E+02 0. -1.
     -611    1    3    3    0    0  0.30033155739E-01 -0.26961185921E-01  0.10045159826E+02  0.10045245882E+02  0.10000000000E-01 0.  1.
      611    1    3    3    0    0  0.29577843260E-01  0.13343954498E-01  0.11025989156E+01  0.11031216064E+01  0.10000000000E-01 0. -1.
</event>
<event>
 7   0  0.6206631E-02  0.9118800E+02  0.7818608E-02  0.1180000E+00
       11   -1    0    0    0    0  0.00000000000E+00  0.00000000000E+00  0.11999999989E+02  0.12000000000E+02  0.51109989000E-03 0.  1.
     -623   -1    0    0    0    0  0.00000000000E+00  0.00000000000E+00  0.42561509872E-11  0.25126700000E+02  0.25126700000E+02 0. -1.
      622    2    1    2    0    0  0.36269272420E-02  0.71026064278E-03  0.11989389447E+02  0.11989838953E+02  0.10375523540E+00 0.  0.
       11    1    1    2    0    0 -0.24361050775E-02  0.41543726932E-03  0.98426180430E-02  0.10160981703E-01  0.51109989000E-03 0.  1.
     -623    1    1    2    0    0 -0.11908221644E-02 -0.11256979121E-02  0.76792398615E-03  0.25126700065E+02  0.25126700000E+02 0. -1.
     -611    1    3    3    0    0 -0.46618435542E-02 -0.91663688841E-03  0.11796784310E+02  0.11796789505E+02  0.10000000000E-01 0.  1.
      611    1    3    3    0    0  0.82887707962E-02  0.16268975312E-02  0.19260513691E+00  0.19304944776E+00  0.10000000000E-01 0.  1.
</event>
<event>
 7   0  0.6206631E-02  0.9118800E+02  0.7818608E-02  0.1180000E+00
       11   -1    0    0    0    0  0.00000000000E+00  0.00000000000E+00  0.11999999989E+02  0.12000000000E+02  0.51109989000E-03 0.  1.
     -623   -1    0    0    0    0  0.00000000000E+00  0.00000000000E+00  0.42561509872E-11  0.25126700000E+02  0.25126700000E+02 0.  1.
      622    2    1    2    0    0 -0.26356883439E-01 -0.25856699054E-01  0.11859345208E+02  0.11859849323E+02  0.10292682678E+00 0.  0.
       11    1    1    2    0    0  0.45102779598E-01  0.78551339918E-01  0.10683424880E+00  0.14006566913E+00  0.51109989000E-03 0.  1.
     -623    1    1    2    0    0 -0.18745896159E-01 -0.52694640863E-01  0.33820532063E-01  0.25126785008E+02  0.25126700000E+02 0.  1.
     -611    1    3    3    0    0 -0.35385172750E-01 -0.43319556602E-01  0.11183440460E+02  0.11183584810E+02  0.10000000000E-01 0.  1.
      611    1    3    3    0    0  0.90282893107E-02  0.17462857547E-01  0.67590474850E+00  0.67626451219E+00  0.10000000000E-01 0. -1.
</event>
<event>
 7   0  0.6206631E-02  0.9118800E+02  0.7818608E-02  0.1180000E+00
       11   -1    0    0    0    0  0.00000000000E+00  0.00000000000E+00  0.11999999989E+02  0.12000000000E+02  0.51109989000E-03 0. -1.
     -623   -1    0    0    0    0  0.00000000000E+00  0.00000000000E+00  0.42561509872E-11  0.25126700000E+02  0.25126700000E+02 0.  1.
      622    2    1    2    0    0  0.12738273905E+00  0.69191756282E-01  0.55891994644E+01  0.55921397526E+01  0.10891509587E+00 0.  0.
       11    1    1    2    0    0 -0.12168070229E+00 -0.62307747203E-01  0.64063998412E+01  0.64078582721E+01  0.51109989000E-03 0. -1.
     -623    1    1    2    0    0 -0.57020367542E-02 -0.68840090790E-02  0.44006835499E-02  0.25126701975E+02  0.25126700000E+02 0.  1.
     -611    1    3    3    0    0  0.14446742143E+00  0.69819784623E-01  0.51176456368E+01  0.51201701634E+01  0.10000000000E-01 0. -1.
      611    1    3    3    0    0 -0.17084682384E-01 -0.62802834107E-03  0.47155382757E+00  0.47196958915E+00  0.10000000000E-01 0.  1.
</event>
<event>
 7   0  0.6206631E-02  0.9118800E+02  0.7818608E-02  0.1180000E+00
       11   -1    0    0    0    0  0.00000000000E+00  0.00000000000E+00  0.11999999989E+02  0.12000000000E+02  0.51109989000E-03 0. -1.
     -623   -1    0    0    0    0  0.00000000000E+00  0.00000000000E+00  0.42561509872E-11  0.25126700000E+02  0.25126700000E+02 0.  1.
      622    2    1    2    0    0  0.33957890670E-01  0.44634782341E-01  0.62449722974E+01  0.62457319235E+01  0.79642094106E-01 0.  0.
       11    1    1    2    0    0 -0.30320254455E-01 -0.36811751776E-01  0.57540689217E+01  0.57542665771E+01  0.51109989000E-03 0. -1.
     -623    1    1    2    0    0 -0.36376362153E-02 -0.78230305652E-02  0.95877003158E-03  0.25126701499E+02  0.25126700000E+02 0.  1.
     -611    1    3    3    0    0  0.34953588292E-01  0.41234638863E-01  0.20243346468E+01  0.20250809393E+01  0.10000000000E-01 0.  1.
      611    1    3    3    0    0 -0.99569762174E-03  0.34001434785E-02  0.42206376506E+01  0.42206509842E+01  0.10000000000E-01 0. -1.
</event>
<event>
 7   0  0.6206631E-02  0.9118800E+02  0.7818608E-02  0.1180000E+00
       11   -1    0    0    0    0  0.00000000000E+00  0.00000000000E+00  0.11999999989E+02  0.12000000000E+02  0.51109989000E-03 0. -1.
     -623   -1    0    0    0    0  0.00000000000E+00  0.00000000000E+00  0.42561509872E-11  0.25126700000E+02  0.25126700000E+02 0. -1.
      622    2    1    2    0    0 -0.21519779311E-02 -0.80660013212E-02  0.11986366812E+02  0.11986802724E+02  0.10188474713E+00 0.  0.
       11    1    1    2    0    0 -0.84286024705E-02  0.62232835727E-02  0.80036901017E-02  0.13194350170E-01  0.51109989000E-03 0. -1.
     -623    1    1    2    0    0  0.10580580402E-01  0.18427177485E-02  0.56294871020E-02  0.25126702926E+02  0.25126700000E+02 0. -1.
     -611    1    3    3    0    0  0.32530135677E-01 -0.36435575328E-01  0.83051097418E+01  0.83052593929E+01  0.10000000000E-01 0. -1.
      611    1    3    3    0    0 -0.34682113608E-01  0.28369574007E-01  0.36812570701E+01  0.36815433310E+01  0.10000000000E-01 0.  1.
</event>
<event>
 7   0  0.6206631E-02  0.9118800E+02  0.7818608E-02  0.1180000E+00
       11   -1    0    0    0    0  0.00000000000E+00  0.00000000000E+00  0.11999999989E+02  0.12000000000E+02  0.51109989000E-03 0. -1.
     -623   -1    0    0    0    0  0.00000000000E+00  0.00000000000E+00  0.42561509872E-11  0.25126700000E+02  0.25126700000E+02 0. -1.
      622    2    1    2    0    0 -0.28389759316E-02 -0.38220714277E-02  0.11476575154E+02  0.11477189415E+02  0.11864620316E+00 0.  0.
       11    1    1    2    0    0  0.16458909668E-02  0.42471819099E-02  0.52279045293E+00  0.52281054543E+00  0.51109989000E-03 0. -1.
     -623    1    1    2    0    0  0.11930849649E-02 -0.42511048226E-03  0.63438198698E-03  0.25126700040E+02  0.25126700000E+02 0. -1.
     -611    1    3    3    0    0 -0.17848761701E-01 -0.52964406243E-01  0.81957107671E+01  0.81959074412E+01  0.10000000000E-01 0. -1.
      611    1    3    3    0    0  0.15009785769E-01  0.49142334815E-01  0.32808643871E+01  0.32812819734E+01  0.10000000000E-01 0.  1.
</event>
<event>
 7   0  0.6206631E-02  0.9118800E+02  0.7818608E-02  0.1180000E+00
       11   -1    0    0    0    0  0.00000000000E+00  0.00000000000E+00  0.11999999989E+02  0.12000000000E+02  0.51109989000E-03 0.  1.
     -623   -1    0    0    0    0  0.00000000000E+00  0.00000000000E+00  0.42561509872E-11  0.25126700000E+02  0.25126700000E+02 0. -1.
      622    2    1    2    0    0  0.11896542588E-01 -0.15050358559E-01  0.10802054529E+02  0.10802526499E+02  0.99139717978E-01 0.  0.
       11    1    1    2    0    0  0.94794605410E-02  0.21992231242E-01  0.11972238337E+01  0.11974634389E+01  0.51109989000E-03 0.  1.
     -623    1    1    2    0    0 -0.21376003129E-01 -0.69418726831E-02  0.72162673642E-03  0.25126710062E+02  0.25126700000E+02 0. -1.
     -611    1    3    3    0    0  0.96330276883E-02 -0.53118702200E-01  0.42694357816E+01  0.42697887870E+01  0.10000000000E-01 0. -1.
      611    1    3    3    0    0  0.22635148998E-02  0.38068343641E-01  0.65326187470E+01  0.65327377122E+01  0.10000000000E-01 0.  1.
</event>
<event>
 7   0  0.6206631E-02  0.9118800E+02  0.7818608E-02  0.1180000E+00
       11   -1    0    0    0    0  0.00000000000E+00  0.00000000000E+00  0.11999999989E+02  0.12000000000E+02  0.51109989000E-03 0. -1.
     -623   -1    0    0    0    0  0.00000000000E+00  0.00000000000E+00  0.42561509872E-11  0.25126700000E+02  0.25126700000E+02 0. -1.
      622    2    1    2    0    0  0.39589818677E-01 -0.74415263858E-01  0.11157810365E+02  0.11158329069E+02  0.66861722745E-01 0.  0.
       11    1    1    2    0    0  0.26598623691E-01  0.11004518314E+00  0.83390689437E+00  0.84155712748E+00  0.51109989000E-03 0. -1.
     -623    1    1    2    0    0 -0.66188442368E-01 -0.35629919281E-01  0.82827295097E-02  0.25126813803E+02  0.25126700000E+02 0. -1.
     -611    1    3    3    0    0  0.37725620235E-01 -0.67837962052E-01  0.10847541542E+02  0.10847823870E+02  0.10000000000E-01 0. -1.
      611    1    3    3    0    0  0.18641984419E-02 -0.65773018058E-02  0.31026882340E+00  0.31050519949E+00  0.10000000000E-01 0. -1.
</event>
<event>
 7   0  0.6206631E-02  0.9118800E+02  0.7818608E-02  0.1180000E+00
       11   -1    0    0    0    0  0.00000000000E+00  0.00000000000E+00  0.11999999989E+02  0.12000000000E+02  0.51109989000E-03 0.  1.
     -623   -1    0    0    0    0  0.00000000000E+00  0.00000000000E+00  0.42561509872E-11  0.25126700000E+02  0.25126700000E+02 0.  1.
      622    2    1    2    0    0  0.77855713639E-02  0.15715796347E-01  0.11608107036E+02  0.11608520607E+02  0.96405999075E-01 0.  0.
       11    1    1    2    0    0 -0.10761312126E-01 -0.11097881131E-01  0.39117311628E+00  0.39147878222E+00  0.51109989000E-03 0.  1.
     -623    1    1    2    0    0  0.29757407624E-02 -0.46179152167E-02  0.71983667659E-03  0.25126700611E+02  0.25126700000E+02 0.  1.
     -611    1    3    3    0    0  0.49326661949E-01  0.21507372323E-01  0.61863827427E+01  0.61866248574E+01  0.10000000000E-01 0.  1.
      611    1    3    3    0    0 -0.41541090585E-01 -0.57915759752E-02  0.54217242934E+01  0.54218957495E+01  0.10000000000E-01 0.  1.
</event>
<event>
 7   0  0.6206631E-02  0.9118800E+02  0.7818608E-02  0.1180000E+00
       11   -1    0    0    0    0  0.00000000000E+00  0.00000000000E+00  0.11999999989E+02  0.12000000000E+02  0.51109989000E-03 0. -1.
     -623   -1    0    0    0    0  0.00000000000E+00  0.00000000000E+00  0.42561509872E-11  0.25126700000E+02  0.25126700000E+02 0.  1.
      622    2    1    2    0    0 -0.14805402681E-01 -0.97334992840E-02  0.11779380930E+02  0.11779778072E+02  0.95091524304E-01 0.  0.
       11    1    1    2    0    0 -0.90528449657E-02  0.41068288030E-02  0.21998487816E+00  0.22020996319E+00  0.51109989000E-03 0. -1.
     -623    1    1    2    0    0  0.23858247647E-01  0.56266704811E-02  0.63418137334E-03  0.25126711965E+02  0.25126700000E+02 0.  1.
     -611    1    3    3    0    0 -0.38465296654E-01 -0.68506115315E-02  0.22457392332E+01  0.22461013364E+01  0.10000000000E-01 0.  1.
      611    1    3    3    0    0  0.23659893973E-01 -0.28828877526E-02  0.95336416964E+01  0.95336767355E+01  0.10000000000E-01 0. -1.
</event>
<event>
 7   0  0.6206631E-02  0.9118800E+02  0.7818608E-02  0.1180000E+00
       11   -1    0    0    0    0  0.00000000000E+00  0.00000000000E+00  0.11999999989E+02  0.12000000000E+02  0.51109989000E-03 0.  1.
     -623   -1    0    0    0    0  0.00000000000E+00  0.00000000000E+00  0.42561509872E-11  0.25126700000E+02  0.25126700000E+02 0.  1.
      622    2    1    2    0    0  0.63437121235E-02 -0.85754066921E-02  0.11801433112E+02  0.11801892513E+02  0.10358376868E+00 0.  0.
       11    1    1    2    0    0 -0.13678899791E-01 -0.73636799243E-02  0.19749061472E+00  0.19810133823E+00  0.51109989000E-03 0.  1.
     -623    1    1    2    0    0  0.73351876671E-02  0.15939086616E-01  0.10762622255E-02  0.25126706149E+02  0.25126700000E+02 0.  1.
     -611    1    3    3    0    0 -0.24610155245E-02 -0.20526622639E-01  0.59221312476E+00  0.59265823539E+00  0.10000000000E-01 0.  1.
      611    1    3    3    0    0  0.88047276481E-02  0.11951215946E-01  0.11209219987E+02  0.11209234277E+02  0.10000000000E-01 0.  1.
</event>
<event>
 7   0  0.6206631E-02  0.9118800E+02  0.7818608E-02  0.1180000E+00
       11   -1    0    0    0    0  0.00000000000E+00  0.00000000000E+00  0.11999999989E+02  0.12000000000E+02  0.51109989000E-03 0. -1.
     -623   -1    0    0    0    0  0.00000000000E+00  0.00000000000E+00  0.42561509872E-11  0.25126700000E+02  0.25126700000E+02 0. -1.
      622    2    1    2    0    0  0.10516693420E-01  0.36388773534E-02  0.91544819248E+01  0.91550988933E+01  0.10570048092E+00 0.  0.
       11    1    1    2    0    0 -0.11937306179E-01 -0.40950314726E-02  0.28448730162E+01  0.28449010542E+01  0.51109989000E-03 0. -1.
     -623    1    1    2    0    0  0.14206127593E-02  0.45615411923E-03  0.64504814492E-03  0.25126700053E+02  0.25126700000E+02 0. -1.
     -611    1    3    3    0    0  0.40808226928E-01  0.17030207753E-01  0.19234618087E+01  0.19239960158E+01  0.10000000000E-01 0.  1.
      611    1    3    3    0    0 -0.30291533508E-01 -0.13391330399E-01  0.72310201161E+01  0.72311028775E+01  0.10000000000E-01 0. -1.
</event>
<event>
 7   0  0.6206631E-02  0.9118800E+02  0.7818608E-02  0.1180000E+00
       11   -1    0    0    0    0  0.00000000000E+00  0.00000000000E+00  0.11999999989E+02  0.12000000000E+02  0.51109989000E-03 0.  1.
     -623   -1    0    0    0    0  0.00000000000E+00  0.00000000000E+00  0.42561509872E-11  0.25126700000E+02  0.25126700000E+02 0. -1.
      622    2    1    2    0    0 -0.10094990829E-01 -0.22111679280E-02  0.10223493628E+02  0.10224017462E+02  0.10297716561E+00 0.  0.
       11    1    1    2    0    0  0.11820789133E-01  0.34383803076E-02  0.17759397012E+01  0.17759824428E+01  0.51109989000E-03 0.  1.
     -623    1    1    2    0    0 -0.17257983039E-02 -0.12272123796E-02  0.56665998678E-03  0.25126700096E+02  0.25126700000E+02 0. -1.
     -611    1    3    3    0    0  0.16409151432E-01 -0.45505446058E-01  0.39136209257E+01  0.39139326458E+01  0.10000000000E-01 0. -1.
      611    1    3    3    0    0 -0.26504142260E-01  0.43294278130E-01  0.63098727022E+01  0.63100848157E+01  0.10000000000E-01 0.  1.
</event>
<event>
 7   0  0.6206631E-02  0.9118800E+02  0.7818608E-02  0.1180000E+00
       11   -1    0    0    0    0  0.00000000000E+00  0.00000000000E+00  0.11999999989E+02  0.12000000000E+02  0.51109989000E-03 0.  1.
     -623   -1    0    0    0    0  0.00000000000E+00  0.00000000000E+00  0.42561509872E-11  0.25126700000E+02  0.25126700000E+02 0. -1.
      622    2    1    2    0    0 -0.16671335870E+00 -0.10074215547E+00  0.10113797633E+02  0.10117097101E+02  0.16973179655E+00 0.  0.
       11    1    1    2    0    0  0.22973180916E+00  0.89167322945E-01  0.18666170406E+01  0.18828135737E+01  0.51109989000E-03 0.  1.
     -623    1    1    2    0    0 -0.63018450457E-01  0.11574832528E-01  0.19585315967E-01  0.25126789325E+02  0.25126700000E+02 0. -1.
     -611    1    3    3    0    0 -0.12762176772E+00 -0.14090110719E+00  0.63028064975E+01  0.63056807866E+01  0.10000000000E-01 0.  1.
      611    1    3    3    0    0 -0.39091590987E-01  0.40158951720E-01  0.38109911350E+01  0.38114163148E+01  0.10000000000E-01 0. -1.
</event>
<event>
 7   0  0.6206631E-02  0.9118800E+02  0.7818608E-02  0.1180000E+00
       11   -1    0    0    0    0  0.00000000000E+00  0.00000000000E+00  0.11999999989E+02  0.12000000000E+02  0.51109989000E-03 0.  1.
     -623   -1    0    0    0    0  0.00000000000E+00  0.00000000000E+00  0.42561509872E-11  0.25126700000E+02  0.25126700000E+02 0. -1.
      622    2    1    2    0    0 -0.20009356737E-01 -0.30585240079E-01  0.96130561686E+01  0.96135225886E+01  0.87360339457E-01 0.  0.
       11    1    1    2    0    0  0.18737136426E-01  0.30188203452E-01  0.23862128040E+01  0.23864773653E+01  0.51109989000E-03 0.  1.
     -623    1    1    2    0    0  0.12722203117E-02  0.39703662668E-03  0.73101636607E-03  0.25126700046E+02  0.25126700000E+02 0. -1.
     -611    1    3    3    0    0 -0.40066557943E-01 -0.24479369878E-01  0.26957009925E+01  0.26961284111E+01  0.10000000000E-01 0. -1.
      611    1    3    3    0    0  0.20057201205E-01 -0.61058702010E-02  0.69173551762E+01  0.69173941775E+01  0.10000000000E-01 0.  1.
</event>
<event>
 7   0  0.6206631E-02  0.9118800E+02  0.7818608E-02  0.1180000E+00
       11   -1    0    0    0    0  0.00000000000E+00  0.00000000000E+00  0.11999999989E+02  0.12000000000E+02  0.51109989000E-03 0. -1.
     -623   -1    0    0    0    0  0.00000000000E+00  0.00000000000E+00  0.42561509872E-11  0.25126700000E+02  0.25126700000E+02 0.  1.
      622    2    1    2    0    0  0.87360328903E-02 -0.71094908018E-02  0.11629618000E+02  0.11630113570E+02  0.10677053816E+00 0.  0.
       11    1    1    2    0    0 -0.78356271722E-02  0.79755923478E-02  0.36971701821E+00  0.36988639053E+00  0.51109989000E-03 0. -1.
     -623    1    1    2    0    0 -0.90040571802E-03 -0.86610154600E-03  0.66497069328E-03  0.25126700040E+02  0.25126700000E+02 0.  1.
     -611    1    3    3    0    0 -0.58248546437E-04 -0.12941068045E-01  0.11411458816E+02  0.11411470536E+02  0.10000000000E-01 0. -1.
      611    1    3    3    0    0  0.87942814367E-02  0.58315772432E-02  0.21815918393E+00  0.21864303376E+00  0.10000000000E-01 0. -1.
</event>
<event>
 7   0  0.6206631E-02  0.9118800E+02  0.7818608E-02  0.1180000E+00
       11   -1    0    0    0    0  0.00000000000E+00  0.00000000000E+00  0.11999999989E+02  0.12000000000E+02  0.51109989000E-03 0. -1.
     -623   -1    0    0    0    0  0.00000000000E+00  0.00000000000E+00  0.42561509872E-11  0.25126700000E+02  0.25126700000E+02 0.  1.
      622    2    1    2    0    0  0.21993583367E-01  0.16718061921E+00  0.10509605115E+02  0.10511397917E+02  0.96194650563E-01 0.  0.
       11    1    1    2    0    0 -0.20918789308E-01 -0.14636110226E+00  0.14812312484E+01  0.14885917642E+01  0.51109989000E-03 0. -1.
     -623    1    1    2    0    0 -0.10747940584E-02 -0.20819516957E-01  0.91636258188E-02  0.25126710319E+02  0.25126700000E+02 0.  1.
     -611    1    3    3    0    0 -0.11596658804E-01  0.11179294056E+00  0.84422272256E+01  0.84429812669E+01  0.10000000000E-01 0. -1.
      611    1    3    3    0    0  0.33590242171E-01  0.55387678656E-01  0.20673778893E+01  0.20684166496E+01  0.10000000000E-01 0.  1.
</event>
<event>
 7   0  0.6206631E-02  0.9118800E+02  0.7818608E-02  0.1180000E+00
       11   -1    0    0    0    0  0.00000000000E+00  0.00000000000E+00  0.11999999989E+02  0.12000000000E+02  0.51109989000E-03 0. -1.
     -623   -1    0    0    0    0  0.00000000000E+00  0.00000000000E+00  0.42561509872E-11  0.25126700000E+02  0.25126700000E+02 0. -1.
      622    2    1    2    0    0  0.23850619716E-02  0.11742384522E-01  0.11982316051E+02  0.11982901347E+02  0.11782685116E+00 0.  0.
       11    1    1    2    0    0  0.62462880087E-03  0.27833314402E-02  0.16846822209E-01  0.17094260343E-01  0.51109989000E-03 0. -1.
     -623    1    1    2    0    0 -0.30096907724E-02 -0.14525715962E-01  0.83711581136E-03  0.25126704393E+02  0.25126700000E+02 0. -1.
     -611    1    3    3    0    0  0.57869167710E-02  0.34207963436E-01  0.11399111091E+02  0.11399168274E+02  0.10000000000E-01 0. -1.
      611    1    3    3    0    0 -0.34018547994E-02 -0.22465578915E-01  0.58320496032E+00  0.58373307307E+00  0.10000000000E-01 0.  1.
</event>
<event>
 7   0  0.6206631E-02  0.9118800E+02  0.7818608E-02  0.1180000E+00
       11   -1    0    0    0    0  0.00000000000E+00  0.00000000000E+00  0.11999999989E+02  0.12000000000E+02  0.51109989000E-03 0.  1.
     -623   -1    0    0    0    0  0.00000000000E+00  0.00000000000E+00  0.42561509872E-11  0.25126700000E+02  0.25126700000E+02 0. -1.
      622    2    1    2    0    0  0.12391071909E-01 -0.39877685157E-02  0.11952799177E+02  0.11954396950E+02  0.19500981613E+00 0.  0.
       11    1    1    2    0    0 -0.53580230501E-02 -0.45368009471E-02  0.45053922594E-01  0.45600527826E-01  0.51109989000E-03 0.  1.
     -623    1    1    2    0    0 -0.70330488589E-02  0.85245694628E-02  0.21468892641E-02  0.25126702522E+02  0.25126700000E+02 0. -1.
     -611    1    3    3    0    0  0.67526073191E-02 -0.21704358721E-01  0.11811802627E+02  0.11811828732E+02  0.10000000000E-01 0.  1.
      611    1    3    3    0    0  0.56384645899E-02  0.17716590206E-01  0.14099654989E+00  0.14256821853E+00  0.10000000000E-01 0. -1.
</event>
<event>
 6   0  0.6206631E-02  0.9118800E+02  0.7818608E-02  0.1180000E+00
       11   -1    0    0    0    0  0.00000000000E+00  0.00000000000E+00  0.11999999989E+02  0.12000000000E+02  0.51109989000E-03 0.  1.
     -623   -1    0    0    0    0  0.00000000000E+00  0.00000000000E+00  0.42561509872E-11  0.25126700000E+02  0.25126700000E+02 0.  1.
       11    1    1    2    0    0 -0.52349700937E-03 -0.83200386908E-02  0.15817364095E+00  0.15839399928E+00  0.51109989000E-03 0.  1.
     -623    1    1    2    0    0  0.75116300527E-02  0.22379931653E-01  0.41519022143E-02  0.25126711433E+02  0.25126700000E+02 0.  1.
     -611    1    1    2    0    0 -0.10923022103E+00 -0.11559923624E+00  0.66553530591E+01  0.66572606053E+01  0.10000000000E-01 0.  1.
      611    1    1    2    0    0  0.10224208798E+00  0.10153934328E+00  0.51823213868E+01  0.51843339629E+01  0.10000000000E-01 0. -1.
</event>
<event>
 7   0  0.6206631E-02  0.9118800E+02  0.7818608E-02  0.1180000E+00
       11   -1    0    0    0    0  0.00000000000E+00  0.00000000000E+00  0.11999999989E+02  0.12000000000E+02  0.51109989000E-03 0.  1.
     -623   -1    0    0    0    0  0.00000000000E+00  0.00000000000E+00  0.42561509872E-11  0.25126700000E+02  0.25126700000E+02 0. -1.
      622    2    1    2    0    0 -0.84376087992E-03 -0.20059539143E-03  0.11977081202E+02  0.11977296338E+02  0.71782260718E-01 0.  0.
       11    1    1    2    0    0  0.54918009754E-03  0.11394309836E-03  0.22690974607E-01  0.22703659035E-01  0.51109989000E-03 0.  1.
     -623    1    1    2    0    0  0.29458078238E-03  0.86652293068E-04  0.22781229606E-03  0.25126700003E+02  0.25126700000E+02 0. -1.
     -611    1    3    3    0    0 -0.13637597138E-01  0.98965720805E-02  0.11052776102E+02  0.11052793469E+02  0.10000000000E-01 0.  1.
      611    1    3    3    0    0  0.12793836258E-01 -0.10097167472E-01  0.92430510077E+00  0.92450286876E+00  0.10000000000E-01 0. -1.
</event>
<event>
 7   0  0.6206631E-02  0.9118800E+02  0.7818608E-02  0.1180000E+00
       11   -1    0    0    0    0  0.00000000000E+00  0.00000000000E+00  0.11999999989E+02  0.12000000000E+02  0.51109989000E-03 0.  1.
     -623   -1    0    0    0    0  0.00000000000E+00  0.00000000000E+00  0.42561509872E-11  0.25126700000E+02  0.25126700000E+02 0.  1.
      622    2    1    2    0    0  0.23293745937E-01  0.96203278032E-03  0.11593117820E+02  0.11593527254E+02  0.94603766932E-01 0.  0.
       11    1    1    2    0    0 -0.22390477678E-01  0.23265493971E-02  0.40584834667E+00  0.40647249359E+00  0.51109989000E-03 0.  1.
     -623    1    1    2    0    0 -0.90326825899E-03 -0.32885821775E-02  0.10338225696E-02  0.25126700253E+02  0.25126700000E+02 0.  1.
     -611    1    3    3    0    0  0.40756569381E-01  0.20678991895E-01  0.30130822050E+01  0.30134453857E+01  0.10000000000E-01 0. -1.
      611    1    3    3    0    0 -0.17462823443E-01 -0.19716959115E-01  0.85800356149E+01  0.85800818680E+01  0.10000000000E-01 0.  1.
</event>
<event>
 7   0  0.6206631E-02  0.9118800E+02  0.7818608E-02  0.1180000E+00
       11   -1    0    0    0    0  0.00000000000E+00  0.00000000000E+00  0.11999999989E+02  0.12000000000E+02  0.51109989000E-03 0. -1.
     -623   -1    0    0    0    0  0.00000000000E+00  0.00000000000E+00  0.42561509872E-11  0.25126700000E+02  0.25126700000E+02 0.  1.
      622    2    1    2    0    0 -0.46019645262E-02  0.29840254514E-02  0.11777120423E+02  0.11777558105E+02  0.10138727701E+00 0.  0.
       11    1    1    2    0    0  0.14080162243E-02 -0.55221731693E-02  0.22236795833E+00  0.22244155866E+00  0.51109989000E-03 0. -1.
     -623    1    1    2    0    0  0.31939483020E-02  0.25381477180E-02  0.51160800819E-03  0.25126700336E+02  0.25126700000E+02 0.  1.
     -611    1    3    3    0    0  0.17567702471E-01 -0.16172812088E-01  0.85067537505E+00  0.85106919680E+00  0.10000000000E-01 0.  1.
      611    1    3    3    0    0 -0.22169666998E-01  0.19156837540E-01  0.10926445048E+02  0.10926488908E+02  0.10000000000E-01 0. -1.
</event>
<event>
 7   0  0.6206631E-02  0.9118800E+02  0.7818608E-02  0.1180000E+00
       11   -1    0    0    0    0  0.00000000000E+00  0.00000000000E+00  0.11999999989E+02  0.12000000000E+02  0.51109989000E-03 0. -1.
     -623   -1    0    0    0    0  0.00000000000E+00  0.00000000000E+00  0.42561509872E-11  0.25126700000E+02  0.25126700000E+02 0.  1.
      622    2    1    2    0    0  0.18273593727E-01 -0.72826048194E-02  0.11844199821E+02  0.11844682890E+02  0.10514943550E+00 0.  0.
       11    1    1    2    0    0  0.43515130244E-01  0.59908025143E-01  0.13637292052E+00  0.15517851885E+00  0.51109989000E-03 0. -1.
     -623    1    1    2    0    0 -0.61788723970E-01 -0.52625420324E-01  0.19427247642E-01  0.25126838591E+02  0.25126700000E+02 0.  1.
     -611    1    3    3    0    0 -0.48029731734E-02 -0.24396744322E-01  0.10815868906E+02  0.10815902111E+02  0.10000000000E-01 0. -1.
      611    1    3    3    0    0  0.23076566900E-01  0.17114139502E-01  0.10283309148E+01  0.10287807794E+01  0.10000000000E-01 0.  1.
</event>
<event>
 7   0  0.6206631E-02  0.9118800E+02  0.7818608E-02  0.1180000E+00
       11   -1    0    0    0    0  0.00000000000E+00  0.00000000000E+00  0.11999999989E+02  0.12000000000E+02  0.51109989000E-03 0.  1.
     -623   -1    0    0    0    0  0.00000000000E+00  0.00000000000E+00  0.42561509872E-11  0.25126700000E+02  0.25126700000E+02 0. -1.
      622    2    1    2    0    0 -0.40131184607E-03  0.28967424732E-02  0.11978867483E+02  0.11979263659E+02  0.97381139428E-01 0.  0.
       11    1    1    2    0    0  0.12434517677E-02 -0.14348551594E-02  0.20642846015E-01  0.20736279714E-01  0.51109989000E-03 0.  1.
     -623    1    1    2    0    0 -0.84213992166E-03 -0.14618873138E-02  0.48966030904E-03  0.25126700061E+02  0.25126700000E+02 0. -1.
     -611    1    3    3    0    0  0.10141438474E-01  0.13802982766E-01  0.11543732922E+02  0.11543749960E+02  0.10000000000E-01 0.  1.
      611    1    3    3    0    0 -0.10542750320E-01 -0.10906240293E-01  0.43513456076E+00  0.43551369855E+00  0.10000000000E-01 0. -1.
</event>
<event>
 7   0  0.6206631E-02  0.9118800E+02  0.7818608E-02  0.1180000E+00
       11   -1    0    0    0    0  0.00000000000E+00  0.00000000000E+00  0.11999999989E+02  0.12000000000E+02  0.51109989000E-03 0.  1.
     -623   -1    0    0    0    0  0.00000000000E+00  0.00000000000E+00  0.42561509872E-11  0.25126700000E+02  0.25126700000E+02 0. -1.
      622    2    1    2    0    0  0.16435158183E-01 -0.12213791095E-01  0.11084134251E+02  0.11084352350E+02  0.66450311174E-01 0.  0.
       11    1    1    2    0    0 -0.17308860077E-01  0.12937793447E-02  0.91548058873E+00  0.91564525886E+00  0.51109989000E-03 0.  1.
     -623    1    1    2    0    0  0.87370189373E-03  0.10920011751E-01  0.38514975644E-03  0.25126702391E+02  0.25126700000E+02 0. -1.
     -611    1    3    3    0    0  0.17555381648E-01  0.18033153620E-01  0.81491499893E+01  0.81491949869E+01  0.10000000000E-01 0.  1.
      611    1    3    3    0    0 -0.11202234655E-02 -0.30246944715E-01  0.29349842613E+01  0.29351573632E+01  0.10000000000E-01 0. -1.
</event>
<event>
 7   0  0.6206631E-02  0.9118800E+02  0.7818608E-02  0.1180000E+00
       11   -1    0    0    0    0  0.00000000000E+00  0.00000000000E+00  0.11999999989E+02  0.12000000000E+02  0.51109989000E-03 0.  1.
     -623   -1    0    0    0    0  0.00000000000E+00  0.00000000000E+00  0.42561509872E-11  0.25126700000E+02  0.25126700000E+02 0. -1.
      622    2    1    2    0    0 -0.21044208730E-01  0.13274216531E+00  0.11295920105E+02  0.11296955201E+02  0.72955108178E-01 0.  0.
       11    1    1    2    0    0  0.73219124084E-01 -0.16557919508E+00  0.67924268729E+00  0.70295689728E+00  0.51109989000E-03 0.  1.
     -623    1    1    2    0    0 -0.52174915354E-01  0.32837029764E-01  0.24837196782E-01  0.25126787902E+02  0.25126700000E+02 0. -1.
     -611    1    3    3    0    0  0.18889385287E-01  0.85807827830E-01  0.75067523592E+01  0.75072731917E+01  0.10000000000E-01 0. -1.
      611    1    3    3    0    0 -0.39933594016E-01  0.46934337485E-01  0.37891677458E+01  0.37896820091E+01  0.10000000000E-01 0.  1.
</event>
<event>
 7   0  0.6206631E-02  0.9118800E+02  0.7818608E-02  0.1180000E+00
       11   -1    0    0    0    0  0.00000000000E+00  0.00000000000E+00  0.11999999989E+02  0.12000000000E+02  0.51109989000E-03 0. -1.
     -623   -1    0    0    0    0  0.00000000000E+00  0.00000000000E+00  0.42561509872E-11  0.25126700000E+02  0.25126700000E+02 0.  1.
      622    2    1    2    0    0  0.15655313803E-01  0.10344412682E-01  0.10951527475E+02  0.10952071297E+02  0.10751540073E+00 0.  0.
       11    1    1    2    0    0 -0.17709518178E-01 -0.62419875894E-02  0.10477599042E+01  0.10479282740E+01  0.51109989000E-03 0. -1.
     -623    1    1    2    0    0  0.20542043751E-02 -0.41024250927E-02  0.71260984608E-03  0.25126700429E+02  0.25126700000E+02 0.  1.
     -611    1    3    3    0    0  0.43248249759E-01 -0.26514897698E-01  0.33620427177E+01  0.33624402875E+01  0.10000000000E-01 0.  1.
      611    1    3    3    0    0 -0.27592935956E-01  0.36859310380E-01  0.75894847573E+01  0.75896310095E+01  0.10000000000E-01 0. -1.
</event>
<event>
 7   0  0.6206631E-02  0.9118800E+02  0.7818608E-02  0.1180000E+00
       11   -1    0    0    0    0  0.00000000000E+00  0.00000000000E+00  0.11999999989E+02  0.12000000000E+02  0.51109989000E-03 0.  1.
     -623   -1    0    0    0    0  0.00000000000E+00  0.00000000000E+00  0.42561509872E-11  0.25126700000E+02  0.25126700000E+02 0.  1.
      622    2    1    2    0    0  0.68050729070E-01 -0.58983399242E-01  0.20847219064E+01  0.20883295983E+01  0.83337513938E-01 0.  0.
       11    1    1    2    0    0 -0.10124031578E+00  0.78860801660E-01  0.99108094020E+01  0.99116402221E+01  0.51109989000E-03 0.  1.
     -623    1    1    2    0    0  0.33189586713E-01 -0.19877402418E-01  0.44686807456E-02  0.25126730180E+02  0.25126700000E+02 0.  1.
     -611    1    3    3    0    0  0.80341685821E-01 -0.42415630463E-01  0.12697533866E+01  0.12730387013E+01  0.10000000000E-01 0. -1.
      611    1    3    3    0    0 -0.12290956751E-01 -0.16567768779E-01  0.81496851975E+00  0.81529089702E+00  0.10000000000E-01 0.  1.
</event>
<event>
 7   0  0.6206631E-02  0.9118800E+02  0.7818608E-02  0.1180000E+00
       11   -1    0    0    0    0  0.00000000000E+00  0.00000000000E+00  0.11999999989E+02  0.12000000000E+02  0.51109989000E-03 0.  1.
     -623   -1    0    0    0    0  0.00000000000E+00  0.00000000000E+00  0.42561509872E-11  0.25126700000E+02  0.25126700000E+02 0. -1.
      622    2    1    2    0    0  0.16955470307E-01  0.66191317094E-02  0.70199094214E+01  0.70202700126E+01  0.68785644229E-01 0.  0.
       11    1    1    2    0    0 -0.74547462100E-02  0.44169637325E-02  0.49797181997E+01  0.49797257648E+01  0.51109989000E-03 0.  1.
     -623    1    1    2    0    0 -0.95007240971E-02 -0.11036095442E-01  0.37236800161E-03  0.25126704223E+02  0.25126700000E+02 0. -1.
     -611    1    3    3    0    0  0.36920781843E-01 -0.20156064819E-03  0.24285647907E+01  0.24288660168E+01  0.10000000000E-01 0. -1.
      611    1    3    3    0    0 -0.19965311536E-01  0.68206923575E-02  0.45913446307E+01  0.45914039959E+01  0.10000000000E-01 0.  1.
</event>
<event>
 7   0  0.6206631E-02  0.9118800E+02  0.7818608E-02  0.1180000E+00
       11   -1    0    0    0    0  0.00000000000E+00  0.00000000000E+00  0.11999999989E+02  0.12000000000E+02  0.51109989000E-03 0. -1.
     -623   -1    0    0    0    0  0.00000000000E+00  0.00000000000E+00  0.42561509872E-11  0.25126700000E+02  0.25126700000E+02 0. -1.
      622    2    1    2    0    0 -0.20744704895E-01  0.24171921578E-01  0.11156724821E+02  0.11156848508E+02  0.41776574293E-01 0.  0.
       11    1    1    2    0    0  0.12451127004E-01 -0.27867582006E-01  0.84259703415E+00  0.84314984189E+00  0.51109989000E-03 0. -1.
     -623    1    1    2    0    0  0.82935778913E-02  0.36956604277E-02  0.67813386839E-03  0.25126701650E+02  0.25126700000E+02 0. -1.
     -611    1    3    3    0    0 -0.21615202707E-01  0.91143478411E-02  0.93122121247E+01  0.93122470406E+01  0.10000000000E-01 0. -1.
      611    1    3    3    0    0  0.87049781137E-03  0.15057573737E-01  0.18445126964E+01  0.18446014679E+01  0.10000000000E-01 0. -1.
</event>
<event>
 7   0  0.6206631E-02  0.9118800E+02  0.7818608E-02  0.1180000E+00
       11   -1    0    0    0    0  0.00000000000E+00  0.00000000000E+00  0.11999999989E+02  0.12000000000E+02  0.51109989000E-03 0.  1.
     -623   -1    0    0    0    0  0.00000000000E+00  0.00000000000E+00  0.42561509872E-11  0.25126700000E+02  0.25126700000E+02 0.  1.
      622    2    1    2    0    0  0.31116098444E-01  0.41533330526E-01  0.95426542798E+01  0.95434467259E+01  0.11149653048E+00 0.  0.
       11    1    1    2    0    0 -0.46667352031E-01 -0.71078510561E-02  0.24560711915E+01  0.24565248466E+01  0.51109989000E-03 0.  1.
     -623    1    1    2    0    0  0.15551253587E-01 -0.34425479470E-01  0.12745178326E-02  0.25126728428E+02  0.25126700000E+02 0.  1.
     -611    1    3    3    0    0  0.27624326182E-01 -0.20677380062E-01  0.66815445300E+01  0.66816411130E+01  0.10000000000E-01 0.  1.
      611    1    3    3    0    0  0.34917722622E-02  0.62210710588E-01  0.28611097498E+01  0.28618056128E+01  0.10000000000E-01 0. -1.
</event>
<event>
 7   0  0.6206631E-02  0.9118800E+02  0.7818608E-02  0.1180000E+00
       11   -1    0    0    0    0  0.00000000000E+00  0.00000000000E+00  0.11999999989E+02  0.12000000000E+02  0.51109989000E-03 0. -1.
     -623   -1    0    0    0    0  0.00000000000E+00  0.00000000000E+00  0.42561509872E-11  0.25126700000E+02  0.25126700000E+02 0.  1.
      622    2    1    2    0    0 -0.53388021289E-02  0.17905982594E-01  0.10659837677E+02  0.10660211608E+02  0.87310306632E-01 0.  0.
       11    1    1    2    0    0  0.11467996400E-01 -0.24278118279E-02  0.13397314947E+01  0.13397828736E+01  0.51109989000E-03 0. -1.
     -623    1    1    2    0    0 -0.61291942711E-02 -0.15478170767E-01  0.43081705346E-03  0.25126705519E+02  0.25126700000E+02 0.  1.
     -611    1    3    3    0    0 -0.30502217096E-01 -0.21186514315E-01  0.62292235700E+01  0.62293423039E+01  0.10000000000E-01 0. -1.
      611    1    3    3    0    0  0.25163414967E-01  0.39092496910E-01  0.44306141073E+01  0.44308693039E+01  0.10000000000E-01 0.  1.
</event>
<event>
 7   0  0.6206631E-02  0.9118800E+02  0.7818608E-02  0.1180000E+00
       11   -1    0    0    0    0  0.00000000000E+00  0.00000000000E+00  0.11999999989E+02  0.12000000000E+02  0.51109989000E-03 0.  1.
     -623   -1    0    0    0    0  0.00000000000E+00  0.00000000000E+00  0.42561509872E-11  0.25126700000E+02  0.25126700000E+02 0.  1.
      622    2    1    2    0    0  0.60798825005E-02 -0.20699999032E-02  0.11903241204E+02  0.11903395841E+02  0.60333622070E-01 0.  0.
       11    1    1    2    0    0 -0.39804534259E-02  0.79892016369E-02  0.96188762216E-01  0.96603367188E-01  0.51109989000E-03 0.  1.
     -623    1    1    2    0    0 -0.20994290746E-02 -0.59192017337E-02  0.57002284420E-03  0.25126700791E+02  0.25126700000E+02 0.  1.
     -611    1    3    3    0    0 -0.77691094711E-02 -0.10192292369E-01  0.95526596547E+00  0.95540426348E+00  0.10000000000E-01 0. -1.
      611    1    3    3    0    0  0.13848991972E-01  0.81222924659E-02  0.10947975239E+02  0.10947991578E+02  0.10000000000E-01 0.  1.
</event>
<event>
 7   0  0.6206631E-02  0.9118800E+02  0.7818608E-02  0.1180000E+00
       11   -1    0    0    0    0  0.00000000000E+00  0.00000000000E+00  0.11999999989E+02  0.12000000000E+02  0.51109989000E-03 0.  1.
     -623   -1    0    0    0    0  0.00000000000E+00  0.00000000000E+00  0.42561509872E-11  0.25126700000E+02  0.25126700000E+02 0. -1.
      622    2    1    2    0    0 -0.60998195674E-01  0.69159622977E-01  0.10597105101E+02  0.10597983156E+02  0.10053166810E+00 0.  0.
       11    1    1    2    0    0  0.50603974435E-01 -0.11196491615E+00  0.13965828213E+01  0.14019774402E+01  0.51109989000E-03 0.  1.
     -623    1    1    2    0    0  0.10394221239E-01  0.42805293173E-01  0.63120665595E-02  0.25126739404E+02  0.25126700000E+02 0. -1.
     -611    1    3    3    0    0 -0.22968324168E-02 -0.43056355881E-02  0.54381444750E+01  0.54381558588E+01  0.10000000000E-01 0. -1.
      611    1    3    3    0    0 -0.58701363257E-01  0.73465258566E-01  0.51589606262E+01  0.51598272972E+01  0.10000000000E-01 0.  1.
</event>
<event>
 7   0  0.6206631E-02  0.9118800E+02  0.7818608E-02  0.1180000E+00
       11   -1    0    0    0    0  0.00000000000E+00  0.00000000000E+00  0.11999999989E+02  0.12000000000E+02  0.51109989000E-03 0. -1.
     -623   -1    0    0    0    0  0.00000000000E+00  0.00000000000E+00  0.42561509872E-11  0.25126700000E+02  0.25126700000E+02 0. -1.
      622    2    1    2    0    0 -0.11641626396E-02 -0.65801540730E-03  0.11997577344E+02  0.11998054990E+02  0.10704966701E+00 0.  0.
       11    1    1    2    0    0  0.30497115319E-04 -0.25951566572E-03  0.18583253304E-02  0.19449613415E-02  0.51109989000E-03 0. -1.
     -623    1    1    2    0    0  0.11336655242E-02  0.91753107302E-03  0.56431986411E-03  0.25126700049E+02  0.25126700000E+02 0. -1.
     -611    1    3    3    0    0  0.31468922328E-01  0.24506671986E-01  0.96950329117E+01  0.96951201143E+01  0.10000000000E-01 0. -1.
      611    1    3    3    0    0 -0.32633084967E-01 -0.25164687393E-01  0.23025444322E+01  0.23029348757E+01  0.10000000000E-01 0.  1.
</event>
<event>
 7   0  0.6206631E-02  0.9118800E+02  0.7818608E-02  0.1180000E+00
       11   -1    0    0    0    0  0.00000000000E+00  0.00000000000E+00  0.11999999989E+02  0.12000000000E+02  0.51109989000E-03 0. -1.
     -623   -1    0    0    0    0  0.00000000000E+00  0.00000000000E+00  0.42561509872E-11  0.25126700000E+02  0.25126700000E+02 0. -1.
      622    2    1    2    0    0 -0.54757802663E-03  0.63171143987E-02  0.97906481685E+01  0.97907099982E+01  0.34212619008E-01 0.  0.
       11    1    1    2    0    0  0.83501037648E-03 -0.64446544895E-02  0.22092803828E+01  0.22092899995E+01  0.51109989000E-03 0. -1.
     -623    1    1    2    0    0 -0.28743234984E-03  0.12754009059E-03  0.71437560946E-04  0.25126700002E+02  0.25126700000E+02 0. -1.
     -611    1    3    3    0    0 -0.14653265141E-02  0.19357561127E-02  0.96209960734E+00  0.96215463870E+00  0.10000000000E-01 0. -1.
      611    1    3    3    0    0  0.91774848751E-03  0.43813582861E-02  0.88285485612E+01  0.88285553595E+01  0.10000000000E-01 0. -1.
</event>
<event>
 7   0  0.6206631E-02  0.9118800E+02  0.7818608E-02  0.1180000E+00
       11   -1    0    0    0    0  0.00000000000E+00  0.00000000000E+00  0.11999999989E+02  0.12000000000E+02  0.51109989000E-03 0.  1.
     -623   -1    0    0    0    0  0.00000000000E+00  0.00000000000E+00  0.42561509872E-11  0.25126700000E+02  0.25126700000E+02 0. -1.
      622    2    1    2    0    0 -0.10549396966E-01 -0.73619965907E-02  0.11483310101E+02  0.11483442642E+02  0.53651950775E-01 0.  0.
       11    1    1    2    0    0 -0.14372832533E-01 -0.22744052846E-02  0.51633788519E+00  0.51654314838E+00  0.51109989000E-03 0.  1.
     -623    1    1    2    0    0  0.24922229499E-01  0.96364018753E-02  0.35200263741E-03  0.25126714210E+02  0.25126700000E+02 0. -1.
     -611    1    3    3    0    0  0.33366343281E-03  0.19182884314E-01  0.67730848680E+01  0.67731194234E+01  0.10000000000E-01 0.  1.
      611    1    3    3    0    0 -0.10883060398E-01 -0.26544880905E-01  0.47102252334E+01  0.47103232183E+01  0.10000000000E-01 0. -1.
</event>
<event>
 7   0  0.6206631E-02  0.9118800E+02  0.7818608E-02  0.1180000E+00
       11   -1    0    0    0    0  0.00000000000E+00  0.00000000000E+00  0.11999999989E+02  0.12000000000E+02  0.51109989000E-03 0. -1.
     -623   -1    0    0    0    0  0.00000000000E+00  0.00000000000E+00  0.42561509872E-11  0.25126700000E+02  0.25126700000E+02 0.  1.
      622    2    1    2    0    0 -0.34084378532E-01 -0.30553181499E-01  0.10097877761E+02  0.10098411655E+02  0.93206364734E-01 0.  0.
       11    1    1    2    0    0 -0.98736110704E-01  0.19076276381E-01  0.18985729827E+01  0.19012344295E+01  0.51109989000E-03 0. -1.
     -623    1    1    2    0    0  0.13282048924E+00  0.11476905118E-01  0.35492452267E-02  0.25127053916E+02  0.25126700000E+02 0.  1.
     -611    1    3    3    0    0 -0.29312963475E-01  0.16895397986E-01  0.15770505619E+01  0.15774451430E+01  0.10000000000E-01 0.  1.
      611    1    3    3    0    0 -0.47714150574E-02 -0.47448579484E-01  0.85208271992E+01  0.85209665117E+01  0.10000000000E-01 0. -1.
</event>
<event>
 7   0  0.6206631E-02  0.9118800E+02  0.7818608E-02  0.1180000E+00
       11   -1    0    0    0    0  0.00000000000E+00  0.00000000000E+00  0.11999999989E+02  0.12000000000E+02  0.51109989000E-03 0. -1.
     -623   -1    0    0    0    0  0.00000000000E+00  0.00000000000E+00  0.42561509872E-11  0.25126700000E+02  0.25126700000E+02 0. -1.
      622    2    1    2    0    0  0.35549955695E-03 -0.17146803424E-02  0.11996591079E+02  0.11997033858E+02  0.10305732082E+00 0.  0.
       11    1    1    2    0    0 -0.15488121464E-02  0.10982293212E-02  0.22206915136E-02  0.29660783293E-02  0.51109989000E-03 0. -1.
     -623    1    1    2    0    0  0.11933125894E-02  0.61645102120E-03  0.11882191216E-02  0.25126700064E+02  0.25126700000E+02 0. -1.
     -611    1    3    3    0    0 -0.18400588257E-01 -0.44965651671E-02  0.11453301930E+02  0.11453321960E+02  0.10000000000E-01 0. -1.
      611    1    3    3    0    0  0.18756087814E-01  0.27818848247E-02  0.54328914812E+00  0.54371189814E+00  0.10000000000E-01 0.  1.
</event>
<event>
 7   0  0.6206631E-02  0.9118800E+02  0.7818608E-02  0.1180000E+00
       11   -1    0    0    0    0  0.00000000000E+00  0.00000000000E+00  0.11999999989E+02  0.12000000000E+02  0.51109989000E-03 0. -1.
     -623   -1    0    0    0    0  0.00000000000E+00  0.00000000000E+00  0.42561509872E-11  0.25126700000E+02  0.25126700000E+02 0. -1.
      622    2    1    2    0    0  0.32243149926E-02  0.16039153637E-01  0.11958824878E+02  0.11959627230E+02  0.13756222343E+00 0.  0.
       11    1    1    2    0    0 -0.12995980139E-01 -0.32649685264E-02  0.38075094500E-01  0.40367431967E-01  0.51109989000E-03 0. -1.
     -623    1    1    2    0    0  0.97716651468E-02 -0.12774185110E-01  0.31000169581E-02  0.25126705338E+02  0.25126700000E+02 0. -1.
     -611    1    3    3    0    0  0.22518152473E-01 -0.62488625683E-02  0.42450203332E+00  0.42526237991E+00  0.10000000000E-01 0.  1.
      611    1    3    3    0    0 -0.19293837480E-01  0.22288016205E-01  0.11534322844E+02  0.11534364850E+02  0.10000000000E-01 0. -1.
</event>
<event>
 7   0  0.6206631E-02  0.9118800E+02  0.7818608E-02  0.1180000E+00
       11   -1    0    0    0    0  0.00000000000E+00  0.00000000000E+00  0.11999999989E+02  0.12000000000E+02  0.51109989000E-03 0. -1.
     -623   -1    0    0    0    0  0.00000000000E+00  0.00000000000E+00  0.42561509872E-11  0.25126700000E+02  0.25126700000E+02 0. -1.
      622    2    1    2    0    0 -0.95732618557E-02 -0.18697871092E-01  0.11299796063E+02  0.11300158118E+02  0.87983904799E-01 0.  0.
       11    1    1    2    0    0  0.11526864101E-01  0.18618925109E-01  0.69949892489E+00  0.69984179649E+00  0.51109989000E-03 0. -1.
     -623    1    1    2    0    0 -0.19536022448E-02  0.78945982953E-04  0.70500162795E-03  0.25126700086E+02  0.25126700000E+02 0. -1.
     -611    1    3    3    0    0  0.15179573133E-01 -0.43722960214E-01  0.83638557804E+01  0.83639898154E+01  0.10000000000E-01 0. -1.
      611    1    3    3    0    0 -0.24752834989E-01  0.25025089122E-01  0.29359402822E+01  0.29361683022E+01  0.10000000000E-01 0.  1.
</event>
<event>
 7   0  0.6206631E-02  0.9118800E+02  0.7818608E-02  0.1180000E+00
       11   -1    0    0    0    0  0.00000000000E+00  0.00000000000E+00  0.11999999989E+02  0.12000000000E+02  0.51109989000E-03 0. -1.
     -623   -1    0    0    0    0  0.00000000000E+00  0.00000000000E+00  0.42561509872E-11  0.25126700000E+02  0.25126700000E+02 0. -1.
      622    2    1    2    0    0  0.47000703417E-01 -0.21804208378E-01  0.10788179867E+02  0.10789120742E+02  0.13272923977E+00 0.  0.
       11    1    1    2    0    0 -0.23691241126E-01  0.32818125091E-01  0.12101891815E+01  0.12108659796E+01  0.51109989000E-03 0. -1.
     -623    1    1    2    0    0 -0.23309462291E-01 -0.11013916714E-01  0.16309407463E-02  0.25126713279E+02  0.25126700000E+02 0. -1.
     -611    1    3    3    0    0  0.60759701839E-01 -0.10453149753E-01  0.10511750642E+02  0.10511936195E+02  0.10000000000E-01 0. -1.
      611    1    3    3    0    0 -0.13758998421E-01 -0.11351058625E-01  0.27642922498E+00  0.27718454681E+00  0.10000000000E-01 0.  1.
</event>
<event>
 7   0  0.6206631E-02  0.9118800E+02  0.7818608E-02  0.1180000E+00
       11   -1    0    0    0    0  0.00000000000E+00  0.00000000000E+00  0.11999999989E+02  0.12000000000E+02  0.51109989000E-03 0. -1.
     -623   -1    0    0    0    0  0.00000000000E+00  0.00000000000E+00  0.42561509872E-11  0.25126700000E+02  0.25126700000E+02 0. -1.
      622    2    1    2    0    0  0.48248159170E-01 -0.17648972516E-01  0.48728905806E+01  0.48741716412E+01  0.99233092776E-01 0.  0.
       11    1    1    2    0    0 -0.49609014544E-01  0.19689034790E-01  0.71256282879E+01  0.71258281955E+01  0.51109989000E-03 0. -1.
     -623    1    1    2    0    0  0.13608553739E-02 -0.20400622736E-02  0.14811206273E-02  0.25126700163E+02  0.25126700000E+02 0. -1.
     -611    1    3    3    0    0  0.24683260488E-01  0.28470326074E-01  0.80901969748E+00  0.80995845185E+00  0.10000000000E-01 0.  1.
      611    1    3    3    0    0  0.23564898682E-01 -0.46119298590E-01  0.40638708831E+01  0.40642131894E+01  0.10000000000E-01 0. -1.
</event>
<event>
 7   0  0.6206631E-02  0.9118800E+02  0.7818608E-02  0.1180000E+00
       11   -1    0    0    0    0  0.00000000000E+00  0.00000000000E+00  0.11999999989E+02  0.12000000000E+02  0.51109989000E-03 0. -1.
     -623   -1    0    0    0    0  0.00000000000E+00  0.00000000000E+00  0.42561509872E-11  0.25126700000E+02  0.25126700000E+02 0.  1.
      622    2    1    2    0    0  0.33987275300E-02 -0.35014589874E-02  0.11952998724E+02  0.11953487767E+02  0.10801613782E+00 0.  0.
       11    1    1    2    0    0 -0.30989507992E-02  0.42666322279E-02  0.46209485652E-01  0.46512207365E-01  0.51109989000E-03 0. -1.
     -623    1    1    2    0    0 -0.29977673084E-03 -0.76517324052E-03  0.79177965202E-03  0.25126700026E+02  0.25126700000E+02 0.  1.
     -611    1    3    3    0    0  0.18287842827E-01 -0.42280496814E-01  0.95001756427E+01  0.95002925916E+01  0.10000000000E-01 0. -1.
      611    1    3    3    0    0 -0.14889115297E-01  0.38779037827E-01  0.24528230812E+01  0.24531951751E+01  0.10000000000E-01 0.  1.
</event>
<event>
 7   0  0.6206631E-02  0.9118800E+02  0.7818608E-02  0.1180000E+00
       11   -1    0    0    0    0  0.00000000000E+00  0.00000000000E+00  0.11999999989E+02  0.12000000000E+02  0.51109989000E-03 0. -1.
     -623   -1    0    0    0    0  0.00000000000E+00  0.00000000000E+00  0.42561509872E-11  0.25126700000E+02  0.25126700000E+02 0.  1.
      622    2    1    2    0    0  0.67939512624E-01  0.33717628951E-01  0.11304628809E+02  0.11305901219E+02  0.15171428047E+00 0.  0.
       11    1    1    2    0    0 -0.10213441087E+00 -0.63724318624E-01  0.68353462845E+00  0.69405480776E+00  0.51109989000E-03 0. -1.
     -623    1    1    2    0    0  0.34194898244E-01  0.30006689673E-01  0.11836552100E-01  0.25126743973E+02  0.25126700000E+02 0.  1.
     -611    1    3    3    0    0  0.11589163586E+00  0.25628574173E-01  0.74375174081E+01  0.74384711394E+01  0.10000000000E-01 0. -1.
      611    1    3    3    0    0 -0.47952123234E-01  0.80890547781E-02  0.38671114004E+01  0.38674300798E+01  0.10000000000E-01 0.  1.
</event>
<event>
 7   0  0.6206631E-02  0.9118800E+02  0.7818608E-02  0.1180000E+00
       11   -1    0    0    0    0  0.00000000000E+00  0.00000000000E+00  0.11999999989E+02  0.12000000000E+02  0.51109989000E-03 0.  1.
     -623   -1    0    0    0    0  0.00000000000E+00  0.00000000000E+00  0.42561509872E-11  0.25126700000E+02  0.25126700000E+02 0. -1.
      622    2    1    2    0    0  0.67873891214E-03 -0.76733152696E-03  0.11990468672E+02  0.11990974059E+02  0.11008570540E+00 0.  0.
       11    1    1    2    0    0  0.45496460750E-03  0.51362108184E-03  0.89852655142E-02  0.90259082041E-02  0.51109989000E-03 0.  1.
     -623    1    1    2    0    0 -0.11337035196E-02  0.25371044512E-03  0.54605170945E-03  0.25126700033E+02  0.25126700000E+02 0. -1.
     -611    1    3    3    0    0  0.26437486727E-01  0.46498060096E-01  0.67529865610E+01  0.67532057946E+01  0.10000000000E-01 0.  1.
      611    1    3    3    0    0 -0.25758747815E-01 -0.47265391623E-01  0.52374821109E+01  0.52377682644E+01  0.10000000000E-01 0.  1.
</event>
<event>
 7   0  0.6206631E-02  0.9118800E+02  0.7818608E-02  0.1180000E+00
       11   -1    0    0    0    0  0.00000000000E+00  0.00000000000E+00  0.11999999989E+02  0.12000000000E+02  0.51109989000E-03 0.  1.
     -623   -1    0    0    0    0  0.00000000000E+00  0.00000000000E+00  0.42561509872E-11  0.25126700000E+02  0.25126700000E+02 0. -1.
      622    2    1    2    0    0  0.60533908780E-03  0.29034523313E-02  0.11980681791E+02  0.11981125317E+02  0.10304804269E+00 0.  0.
       11    1    1    2    0    0  0.92207178429E-04 -0.10179378407E-02  0.18839971315E-01  0.18874597793E-01  0.51109989000E-03 0.  1.
     -623    1    1    2    0    0 -0.69754626623E-03 -0.18855144906E-02  0.47822704038E-03  0.25126700085E+02  0.25126700000E+02 0. -1.
     -611    1    3    3    0    0  0.13014592211E-01  0.34810032230E-01  0.19479670598E+01  0.19483471929E+01  0.10000000000E-01 0.  1.
      611    1    3    3    0    0 -0.12409253123E-01 -0.31906579899E-01  0.10032714731E+02  0.10032778124E+02  0.10000000000E-01 0.  1.
</event>
<event>
 7   0  0.6206631E-02  0.9118800E+02  0.7818608E-02  0.1180000E+00
       11   -1    0    0    0    0  0.00000000000E+00  0.00000000000E+00  0.11999999989E+02  0.12000000000E+02  0.51109989000E-03 0. -1.
     -623   -1    0    0    0    0  0.00000000000E+00  0.00000000000E+00  0.42561509872E-11  0.25126700000E+02  0.25126700000E+02 0.  1.
      622    2    1    2    0    0 -0.54051846211E-03 -0.23416320438E-02  0.11995686925E+02  0.11996187066E+02  0.10951509764E+00 0.  0.
       11    1    1    2    0    0 -0.10118452368E-02  0.92312298318E-03  0.35214327026E-02  0.38128333623E-02  0.51109989000E-03 0. -1.
     -623    1    1    2    0    0  0.15523636989E-02  0.14185090607E-02  0.79163175112E-03  0.25126700100E+02  0.25126700000E+02 0.  1.
     -611    1    3    3    0    0  0.44198423557E-01 -0.14164814321E-01  0.90075283122E+01  0.90076534368E+01  0.10000000000E-01 0. -1.
      611    1    3    3    0    0 -0.44738942019E-01  0.11823182277E-01  0.29881586124E+01  0.29885336293E+01  0.10000000000E-01 0.  1.
</event>
<event>
 7   0  0.6206631E-02  0.9118800E+02  0.7818608E-02  0.1180000E+00
       11   -1    0    0    0    0  0.00000000000E+00  0.00000000000E+00  0.11999999989E+02  0.12000000000E+02  0.51109989000E-03 0.  1.
     -623   -1    0    0    0    0  0.00000000000E+00  0.00000000000E+00  0.42561509872E-11  0.25126700000E+02  0.25126700000E+02 0.  1.
      622    2    1    2    0    0  0.19415376411E-02  0.14151194663E-02  0.11895173195E+02  0.11895316825E+02  0.58405905379E-01 0.  0.
       11    1    1    2    0    0 -0.94848276457E-03 -0.15822799534E-02  0.10466565006E+00  0.10468315412E+00  0.51109989000E-03 0.  1.
     -623    1    1    2    0    0 -0.99305487655E-03  0.16716048706E-03  0.16114361011E-03  0.25126700021E+02  0.25126700000E+02 0.  1.
     -611    1    3    3    0    0 -0.22748150452E-01 -0.97411808039E-02  0.75800070537E+01  0.75800540435E+01  0.10000000000E-01 0.  1.
      611    1    3    3    0    0  0.24689688093E-01  0.11156300270E-01  0.43151661417E+01  0.43152627816E+01  0.10000000000E-01 0.  1.
</event>
<event>
 7   0  0.6206631E-02  0.9118800E+02  0.7818608E-02  0.1180000E+00
       11   -1    0    0    0    0  0.00000000000E+00  0.00000000000E+00  0.11999999989E+02  0.12000000000E+02  0.51109989000E-03 0. -1.
     -623   -1    0    0    0    0  0.00000000000E+00  0.00000000000E+00  0.42561509872E-11  0.25126700000E+02  0.25126700000E+02 0. -1.
      622    2    1    2    0    0 -0.17493656645E-01  0.28267992910E-02  0.11819054342E+02  0.11819435457E+02  0.93246768152E-01 0.  0.
       11    1    1    2    0    0  0.17507201599E-01 -0.25222115368E-02  0.17969534583E+00  0.18056450978E+00  0.51109989000E-03 0. -1.
     -623    1    1    2    0    0 -0.13544954401E-04 -0.30458775418E-03  0.12503008469E-02  0.25126700033E+02  0.25126700000E+02 0. -1.
     -611    1    3    3    0    0  0.10479025096E-01  0.33407904196E-01  0.88512473112E+01  0.88513222098E+01  0.10000000000E-01 0. -1.
      611    1    3    3    0    0 -0.27972681740E-01 -0.30581104905E-01  0.29678070313E+01  0.29681132474E+01  0.10000000000E-01 0. -1.
</event>
<event>
 7   0  0.6206631E-02  0.9118800E+02  0.7818608E-02  0.1180000E+00
       11   -1    0    0    0    0  0.00000000000E+00  0.00000000000E+00  0.11999999989E+02  0.12000000000E+02  0.51109989000E-03 0. -1.
     -623   -1    0    0    0    0  0.00000000000E+00  0.00000000000E+00  0.42561509872E-11  0.25126700000E+02  0.25126700000E+02 0.  1.
      622    2    1    2    0    0 -0.25146266272E-02 -0.59268235459E-02  0.11973718964E+02  0.11974318378E+02  0.11963843001E+00 0.  0.
       11    1    1    2    0    0 -0.20424049183E-02  0.21664489132E-02  0.25502612780E-01  0.25680915102E-01  0.51109989000E-03 0. -1.
     -623    1    1    2    0    0  0.45570315455E-02  0.37603746328E-02  0.77841277214E-03  0.25126700707E+02  0.25126700000E+02 0.  1.
     -611    1    3    3    0    0 -0.13120015629E-01  0.84872919864E-02  0.29568106904E+00  0.29626249092E+00  0.10000000000E-01 0.  1.
      611    1    3    3    0    0  0.10605389002E-01 -0.14414115532E-01  0.11678037895E+02  0.11678055887E+02  0.10000000000E-01 0. -1.
</event>
<event>
 7   0  0.6206631E-02  0.9118800E+02  0.7818608E-02  0.1180000E+00
       11   -1    0    0    0    0  0.00000000000E+00  0.00000000000E+00  0.11999999989E+02  0.12000000000E+02  0.51109989000E-03 0.  1.
     -623   -1    0    0    0    0  0.00000000000E+00  0.00000000000E+00  0.42561509872E-11  0.25126700000E+02  0.25126700000E+02 0.  1.
      622    2    1    2    0    0 -0.26481066472E-01 -0.10038129163E-01  0.11695282108E+02  0.11695552726E+02  0.74350393081E-01 0.  0.
       11    1    1    2    0    0  0.23610871785E-01  0.31105224557E-02  0.30351282276E+00  0.30444612565E+00  0.51109989000E-03 0.  1.
     -623    1    1    2    0    0  0.28701946872E-02  0.69276067069E-02  0.12050582918E-02  0.25126701148E+02  0.25126700000E+02 0.  1.
     -611    1    3    3    0    0 -0.29336117302E-01  0.72377491852E-02  0.20292233722E+01  0.20294729579E+01  0.10000000000E-01 0. -1.
      611    1    3    3    0    0  0.28550508292E-02 -0.17275878348E-01  0.96660587359E+01  0.96660797686E+01  0.10000000000E-01 0.  1.
</event>
<event>
 7   0  0.6206631E-02  0.9118800E+02  0.7818608E-02  0.1180000E+00
       11   -1    0    0    0    0  0.00000000000E+00  0.00000000000E+00  0.11999999989E+02  0.12000000000E+02  0.51109989000E-03 0. -1.
     -623   -1    0    0    0    0  0.00000000000E+00  0.00000000000E+00  0.42561509872E-11  0.25126700000E+02  0.25126700000E+02 0.  1.
      622    2    1    2    0    0  0.86251217529E-02 -0.49649462885E-01  0.43563973439E+01  0.43578239985E+01  0.99462166734E-01 0.  0.
       11    1    1    2    0    0 -0.15250660638E-01  0.57163559008E-01  0.76419449201E+01  0.76421739497E+01  0.51109989000E-03 0. -1.
     -623    1    1    2    0    0  0.66255388855E-02 -0.75140961240E-02  0.16577251796E-02  0.25126702052E+02  0.25126700000E+02 0.  1.
     -611    1    3    3    0    0 -0.27651841209E-01 -0.64462932046E-01  0.26437464730E+01  0.26446957306E+01  0.10000000000E-01 0. -1.
      611    1    3    3    0    0  0.36276962962E-01  0.14813469161E-01  0.17126508709E+01  0.17131282679E+01  0.10000000000E-01 0.  1.
</event>
<event>
 7   0  0.6206631E-02  0.9118800E+02  0.7818608E-02  0.1180000E+00
       11   -1    0    0    0    0  0.00000000000E+00  0.00000000000E+00  0.11999999989E+02  0.12000000000E+02  0.51109989000E-03 0. -1.
     -623   -1    0    0    0    0  0.00000000000E+00  0.00000000000E+00  0.42561509872E-11  0.25126700000E+02  0.25126700000E+02 0.  1.
      622    2    1    2    0    0  0.14739838000E-02 -0.62032087288E-02  0.11895345532E+02  0.11895506655E+02  0.61584034235E-01 0.  0.
       11    1    1    2    0    0  0.14831802205E-02  0.66312440407E-02  0.10427073869E+00  0.10449316433E+00  0.51109989000E-03 0. -1.
     -623    1    1    2    0    0 -0.29571640204E-02 -0.42803531190E-03  0.38371802080E-03  0.25126700181E+02  0.25126700000E+02 0.  1.
     -611    1    3    3    0    0  0.16136838071E-01  0.80008248217E-02  0.10049967043E+02  0.10049988158E+02  0.10000000000E-01 0.  1.
      611    1    3    3    0    0 -0.14662854271E-01 -0.14204033551E-01  0.18453784897E+01  0.18455184974E+01  0.10000000000E-01 0. -1.
</event>
<event>
 7   0  0.6206631E-02  0.9118800E+02  0.7818608E-02  0.1180000E+00
       11   -1    0    0    0    0  0.00000000000E+00  0.00000000000E+00  0.11999999989E+02  0.12000000000E+02  0.51109989000E-03 0. -1.
     -623   -1    0    0    0    0  0.00000000000E+00  0.00000000000E+00  0.42561509872E-11  0.25126700000E+02  0.25126700000E+02 0.  1.
      622    2    1    2    0    0 -0.61972108412E-02  0.10366644423E-01  0.11959357088E+02  0.11959695102E+02  0.89101703595E-01 0.  0.
       11    1    1    2    0    0  0.13962555960E-01  0.36371145566E-02  0.37624674084E-01  0.40299614071E-01  0.51109989000E-03 0. -1.
     -623    1    1    2    0    0 -0.77653451184E-02 -0.14003758979E-01  0.30182271342E-02  0.25126705284E+02  0.25126700000E+02 0.  1.
     -611    1    3    3    0    0  0.23996580629E-01 -0.25530531778E-01  0.32146614334E+01  0.32148679250E+01  0.10000000000E-01 0.  1.
      611    1    3    3    0    0 -0.30193791470E-01  0.35897176200E-01  0.87446956545E+01  0.87448271774E+01  0.10000000000E-01 0. -1.
</event>
<event>
 7   0  0.6206631E-02  0.9118800E+02  0.7818608E-02  0.1180000E+00
       11   -1    0    0    0    0  0.00000000000E+00  0.00000000000E+00  0.11999999989E+02  0.12000000000E+02  0.51109989000E-03 0. -1.
     -623   -1    0    0    0    0  0.00000000000E+00  0.00000000000E+00  0.42561509872E-11  0.25126700000E+02  0.25126700000E+02 0. -1.
      622    2    1    2    0    0 -0.99265729464E-02 -0.95963962658E-02  0.89997404777E+01  0.90003730546E+01  0.10581033723E+00 0.  0.
       11    1    1    2    0    0  0.10746772476E-01  0.11926884441E-01  0.29995838084E+01  0.29996268149E+01  0.51109989000E-03 0. -1.
     -623    1    1    2    0    0 -0.82019952979E-03 -0.23304881757E-02  0.67570299601E-03  0.25126700131E+02  0.25126700000E+02 0. -1.
     -611    1    3    3    0    0 -0.27979886841E-01  0.37557484677E-01  0.27193739617E+01  0.27197956141E+01  0.10000000000E-01 0.  1.
      611    1    3    3    0    0  0.18053313894E-01 -0.47153880943E-01  0.62803665160E+01  0.62805774405E+01  0.10000000000E-01 0.  1.
</event>
<event>
 7   0  0.6206631E-02  0.9118800E+02  0.7818608E-02  0.1180000E+00
       11   -1    0    0    0    0  0.00000000000E+00  0.00000000000E+00  0.11999999989E+02  0.12000000000E+02  0.51109989000E-03 0. -1.
     -623   -1    0    0    0    0  0.00000000000E+00  0.00000000000E+00  0.42561509872E-11  0.25126700000E+02  0.25126700000E+02 0.  1.
      622    2    1    2    0    0  0.17907304205E-02  0.77116633728E-03  0.11975780460E+02  0.11975898468E+02  0.53128942929E-01 0.  0.
       11    1    1    2    0    0 -0.30523907081E-02  0.29253548793E-03  0.23900151869E-01  0.24101476066E-01  0.51109989000E-03 0. -1.
     -623    1    1    2    0    0  0.12616602876E-02 -0.10637018252E-02  0.31937738044E-03  0.25126700056E+02  0.25126700000E+02 0.  1.
     -611    1    3    3    0    0  0.11787606092E-01  0.12148924115E-02  0.11041680716E+02  0.11041691603E+02  0.10000000000E-01 0. -1.
      611    1    3    3    0    0 -0.99968756711E-02 -0.44372607422E-03  0.93409974384E+00  0.93420686460E+00  0.10000000000E-01 0.  1.
</event>
<event>
 7   0  0.6206631E-02  0.9118800E+02  0.7818608E-02  0.1180000E+00
       11   -1    0    0    0    0  0.00000000000E+00  0.00000000000E+00  0.11999999989E+02  0.12000000000E+02  0.51109989000E-03 0.  1.
     -623   -1    0    0    0    0  0.00000000000E+00  0.00000000000E+00  0.42561509872E-11  0.25126700000E+02  0.25126700000E+02 0.  1.
      622    2    1    2    0    0  0.41983190215E-03  0.30176143290E-01  0.11041731262E+02  0.11042212230E+02  0.98543848858E-01 0.  0.
       11    1    1    2    0    0  0.64682517029E-02 -0.29094444336E-01  0.95732279788E+00  0.95778678500E+00  0.51109989000E-03 0.  1.
     -623    1    1    2    0    0 -0.68880836050E-02 -0.10816989545E-02  0.94592927971E-03  0.25126700985E+02  0.25126700000E+02 0.  1.
     -611    1    3    3    0    0  0.25211146943E-01  0.56515730491E-01  0.55817445503E+01  0.55820965465E+01  0.10000000000E-01 0. -1.
      611    1    3    3    0    0 -0.24791315040E-01 -0.26339587201E-01  0.54599867117E+01  0.54601156833E+01  0.10000000000E-01 0.  1.
</event>
<event>
 7   0  0.6206631E-02  0.9118800E+02  0.7818608E-02  0.1180000E+00
       11   -1    0    0    0    0  0.00000000000E+00  0.00000000000E+00  0.11999999989E+02  0.12000000000E+02  0.51109989000E-03 0. -1.
     -623   -1    0    0    0    0  0.00000000000E+00  0.00000000000E+00  0.42561509872E-11  0.25126700000E+02  0.25126700000E+02 0. -1.
      622    2    1    2    0    0 -0.21803543992E-02 -0.19686246509E-02  0.11989362110E+02  0.11989784142E+02  0.10055524006E+00 0.  0.
       11    1    1    2    0    0  0.28359518433E-02 -0.43502535624E-02  0.87816504184E-02  0.10214985860E-01  0.51109989000E-03 0. -1.
     -623    1    1    2    0    0 -0.65559744408E-03  0.63188782133E-02  0.18562289950E-02  0.25126700872E+02  0.25126700000E+02 0. -1.
     -611    1    3    3    0    0  0.28995024290E-01  0.38057741134E-01  0.57465757707E+01  0.57467836389E+01  0.10000000000E-01 0.  1.
      611    1    3    3    0    0 -0.31175378689E-01 -0.40026365785E-01  0.62427863390E+01  0.62430005036E+01  0.10000000000E-01 0. -1.
</event>
<event>
 7   0  0.6206631E-02  0.9118800E+02  0.7818608E-02  0.1180000E+00
       11   -1    0    0    0    0  0.00000000000E+00  0.00000000000E+00  0.11999999989E+02  0.12000000000E+02  0.51109989000E-03 0. -1.
     -623   -1    0    0    0    0  0.00000000000E+00  0.00000000000E+00  0.42561509872E-11  0.25126700000E+02  0.25126700000E+02 0. -1.
      622    2    1    2    0    0  0.23617466878E-01 -0.39046482104E-02  0.62139583454E+01  0.62148132520E+01  0.10026169348E+00 0.  0.
       11    1    1    2    0    0 -0.30007615659E-01 -0.83327559618E-03  0.57851075639E+01  0.57851854714E+01  0.51109989000E-03 0. -1.
     -623    1    1    2    0    0  0.63901487805E-02  0.47379238066E-02  0.93407978170E-03  0.25126701277E+02  0.25126700000E+02 0. -1.
     -611    1    3    3    0    0  0.24668662698E-01  0.25440785820E-01  0.55578859442E+01  0.55580079116E+01  0.10000000000E-01 0.  1.
      611    1    3    3    0    0 -0.10511958198E-02 -0.29345434031E-01  0.65607240126E+00  0.65680534042E+00  0.10000000000E-01 0. -1.
</event>
<event>
 7   0  0.6206631E-02  0.9118800E+02  0.7818608E-02  0.1180000E+00
       11   -1    0    0    0    0  0.00000000000E+00  0.00000000000E+00  0.11999999989E+02  0.12000000000E+02  0.51109989000E-03 0. -1.
     -623   -1    0    0    0    0  0.00000000000E+00  0.00000000000E+00  0.42561509872E-11  0.25126700000E+02  0.25126700000E+02 0. -1.
      622    2    1    2    0    0  0.16246127027E-02 -0.13007258844E-02  0.11849873407E+02  0.11850328831E+02  0.10387170687E+00 0.  0.
       11    1    1    2    0    0 -0.57953178733E-02  0.14315893435E-01  0.14886754135E+00  0.14966741998E+00  0.51109989000E-03 0. -1.
     -623    1    1    2    0    0  0.41707051706E-02 -0.13015167551E-01  0.12590411695E-02  0.25126703748E+02  0.25126700000E+02 0. -1.
     -611    1    3    3    0    0 -0.21693709805E-01 -0.25159301349E-01  0.10322883426E+02  0.10322941724E+02  0.10000000000E-01 0. -1.
      611    1    3    3    0    0  0.23318322508E-01  0.23858575465E-01  0.15269899803E+01  0.15273871074E+01  0.10000000000E-01 0. -1.
</event>
<event>
 7   0  0.6206631E-02  0.9118800E+02  0.7818608E-02  0.1180000E+00
       11   -1    0    0    0    0  0.00000000000E+00  0.00000000000E+00  0.11999999989E+02  0.12000000000E+02  0.51109989000E-03 0.  1.
     -623   -1    0    0    0    0  0.00000000000E+00  0.00000000000E+00  0.42561509872E-11  0.25126700000E+02  0.25126700000E+02 0.  1.
      622    2    1    2    0    0  0.35267847345E-03  0.66195761836E-03  0.11993753496E+02  0.11994240330E+02  0.10806303746E+00 0.  0.
       11    1    1    2    0    0  0.28458075427E-03 -0.11423899804E-02  0.56148279061E-02  0.57596490017E-02  0.51109989000E-03 0.  1.
     -623    1    1    2    0    0 -0.63725922772E-03  0.48043236201E-03  0.63166531501E-03  0.25126700021E+02  0.25126700000E+02 0.  1.
     -611    1    3    3    0    0  0.47305439535E-01  0.32449209381E-02  0.87113971302E+01  0.87115319144E+01  0.10000000000E-01 0.  1.
      611    1    3    3    0    0 -0.46952761061E-01 -0.25829633197E-02  0.32823563657E+01  0.32827084160E+01  0.10000000000E-01 0. -1.
</event>
<event>
 7   0  0.6206631E-02  0.9118800E+02  0.7818608E-02  0.1180000E+00
       11   -1    0    0    0    0  0.00000000000E+00  0.00000000000E+00  0.11999999989E+02  0.12000000000E+02  0.51109989000E-03 0.  1.
     -623   -1    0    0    0    0  0.00000000000E+00  0.00000000000E+00  0.42561509872E-11  0.25126700000E+02  0.25126700000E+02 0. -1.
      622    2    1    2    0    0  0.23998894540E-01 -0.17307863637E-01  0.84757118467E+01  0.84765740744E+01  0.11722295460E+00 0.  0.
       11    1    1    2    0    0 -0.22383576415E-01  0.16091822513E-01  0.35233179413E+01  0.35234258255E+01  0.51109989000E-03 0.  1.
     -623    1    1    2    0    0 -0.16153181251E-02  0.12160411240E-02  0.97020110112E-03  0.25126700100E+02  0.25126700000E+02 0. -1.
     -611    1    3    3    0    0  0.18928740385E-01  0.81820819845E-02  0.32195600601E+00  0.32277068250E+00  0.10000000000E-01 0.  1.
      611    1    3    3    0    0  0.50701541550E-02 -0.25489945622E-01  0.81537558407E+01  0.81538033919E+01  0.10000000000E-01 0. -1.
</event>
<event>
 7   0  0.6206631E-02  0.9118800E+02  0.7818608E-02  0.1180000E+00
       11   -1    0    0    0    0  0.00000000000E+00  0.00000000000E+00  0.11999999989E+02  0.12000000000E+02  0.51109989000E-03 0.  1.
     -623   -1    0    0    0    0  0.00000000000E+00  0.00000000000E+00  0.42561509872E-11  0.25126700000E+02  0.25126700000E+02 0.  1.
      622    2    1    2    0    0  0.14073334110E-02  0.62688590806E-02  0.11890641123E+02  0.11891189007E+02  0.11396672678E+00 0.  0.
       11    1    1    2    0    0  0.17592980417E-02 -0.13362446716E-02  0.10878667209E+00  0.10881030248E+00  0.51109989000E-03 0.  1.
     -623    1    1    2    0    0 -0.31666314527E-02 -0.49326144090E-02  0.57219414129E-03  0.25126700690E+02  0.25126700000E+02 0.  1.
     -611    1    3    3    0    0 -0.36043344224E-01 -0.12593381140E-01  0.99109692824E+01  0.99110478675E+01  0.10000000000E-01 0. -1.
      611    1    3    3    0    0  0.37450677635E-01  0.18862240220E-01  0.19796718405E+01  0.19801411398E+01  0.10000000000E-01 0.  1.
</event>
<event>
 7   0  0.6206631E-02  0.9118800E+02  0.7818608E-02  0.1180000E+00
       11   -1    0    0    0    0  0.00000000000E+00  0.00000000000E+00  0.11999999989E+02  0.12000000000E+02  0.51109989000E-03 0. -1.
     -623   -1    0    0    0    0  0.00000000000E+00  0.00000000000E+00  0.42561509872E-11  0.25126700000E+02  0.25126700000E+02 0.  1.
      622    2    1    2    0    0  0.15177486651E-02  0.69605501441E-02  0.11927233689E+02  0.11927840429E+02  0.12009613562E+00 0.  0.
       11    1    1    2    0    0 -0.20557205241E-02  0.13145673329E-02  0.72115113793E-01  0.72158193815E-01  0.51109989000E-03 0. -1.
     -623    1    1    2    0    0  0.53797185902E-03 -0.82751174770E-02  0.65118627553E-03  0.25126701377E+02  0.25126700000E+02 0.  1.
     -611    1    3    3    0    0  0.32539444831E-01  0.38328631774E-01  0.97603264657E+01  0.97604610863E+01  0.10000000000E-01 0. -1.
      611    1    3    3    0    0 -0.31021696166E-01 -0.31368081630E-01  0.21669072233E+01  0.21673793430E+01  0.10000000000E-01 0.  1.
</event>
<event>
 7   0  0.6206631E-02  0.9118800E+02  0.7818608E-02  0.1180000E+00
       11   -1    0    0    0    0  0.00000000000E+00  0.00000000000E+00  0.11999999989E+02  0.12000000000E+02  0.51109989000E-03 0. -1.
     -623   -1    0    0    0    0  0.00000000000E+00  0.00000000000E+00  0.42561509872E-11  0.25126700000E+02  0.25126700000E+02 0. -1.
      622    2    1    2    0    0 -0.95838299844E-03  0.12187394013E-02  0.11985942210E+02  0.11986204476E+02  0.79275878434E-01 0.  0.
       11    1    1    2    0    0  0.42933434871E-02  0.35277722140E-02  0.12615770670E-01  0.13794813076E-01  0.51109989000E-03 0. -1.
     -623    1    1    2    0    0 -0.33349604887E-02 -0.47465116153E-02  0.14420081076E-02  0.25126700711E+02  0.25126700000E+02 0. -1.
     -611    1    3    3    0    0 -0.63551672364E-02 -0.24956308261E-01  0.10174662890E+02  0.10174700396E+02  0.10000000000E-01 0. -1.
      611    1    3    3    0    0  0.53967842380E-02  0.26175047662E-01  0.18112793198E+01  0.18115040803E+01  0.10000000000E-01 0.  1.
</event>
<event>
 7   0  0.6206631E-02  0.9118800E+02  0.7818608E-02  0.1180000E+00
       11   -1    0    0    0    0  0.00000000000E+00  0.00000000000E+00  0.11999999989E+02  0.12000000000E+02  0.51109989000E-03 0. -1.
     -623   -1    0    0    0    0  0.00000000000E+00  0.00000000000E+00  0.42561509872E-11  0.25126700000E+02  0.25126700000E+02 0. -1.
      622    2    1    2    0    0  0.18695681398E-01 -0.53036186461E-01  0.11609173472E+02  0.11609732747E+02  0.99112965274E-01 0.  0.
       11    1    1    2    0    0 -0.19938062774E-01  0.70843491179E-01  0.38325722679E+00  0.39025977207E+00  0.51109989000E-03 0. -1.
     -623    1    1    2    0    0  0.12423813755E-02 -0.17807304718E-01  0.75692898875E-02  0.25126707481E+02  0.25126700000E+02 0. -1.
     -611    1    3    3    0    0  0.40483495403E-01 -0.17967703114E-01  0.22256972352E+01  0.22261603569E+01  0.10000000000E-01 0.  1.
      611    1    3    3    0    0 -0.21787814004E-01 -0.35068483347E-01  0.93834762372E+01  0.93835723901E+01  0.10000000000E-01 0. -1.
</event>
<event>
 7   0  0.6206631E-02  0.9118800E+02  0.7818608E-02  0.1180000E+00
       11   -1    0    0    0    0  0.00000000000E+00  0.00000000000E+00  0.11999999989E+02  0.12000000000E+02  0.51109989000E-03 0. -1.
     -623   -1    0    0    0    0  0.00000000000E+00  0.00000000000E+00  0.42561509872E-11  0.25126700000E+02  0.25126700000E+02 0. -1.
      622    2    1    2    0    0  0.77815841395E-03 -0.29305697515E-02  0.11967235448E+02  0.11967728043E+02  0.10854058295E+00 0.  0.
       11    1    1    2    0    0 -0.31051142076E-02  0.23388240779E-02  0.32032765259E-01  0.32271831458E-01  0.51109989000E-03 0. -1.
     -623    1    1    2    0    0  0.23269557937E-02  0.59174567358E-03  0.73177604879E-03  0.25126700125E+02  0.25126700000E+02 0. -1.
     -611    1    3    3    0    0 -0.51821887294E-02  0.38041574791E-01  0.97657278540E+01  0.97658084424E+01  0.10000000000E-01 0. -1.
      611    1    3    3    0    0  0.59603471433E-02 -0.40972144543E-01  0.22015075939E+01  0.22019196008E+01  0.10000000000E-01 0.  1.
</event>
<event>
 7   0  0.6206631E-02  0.9118800E+02  0.7818608E-02  0.1180000E+00
       11   -1    0    0    0    0  0.00000000000E+00  0.00000000000E+00  0.11999999989E+02  0.12000000000E+02  0.51109989000E-03 0.  1.
     -623   -1    0    0    0    0  0.00000000000E+00  0.00000000000E+00  0.42561509872E-11  0.25126700000E+02  0.25126700000E+02 0.  1.
      622    2    1    2    0    0 -0.18303628772E-02 -0.24229551665E-02  0.11960730464E+02  0.11960784178E+02  0.35717090385E-01 0.  0.
       11    1    1    2    0    0  0.70854956657E-03  0.25840726278E-02  0.39120812008E-01  0.39215795659E-01  0.51109989000E-03 0.  1.
     -623    1    1    2    0    0  0.11218133106E-02 -0.16111746135E-03  0.14871324005E-03  0.25126700026E+02  0.25126700000E+02 0.  1.
     -611    1    3    3    0    0 -0.23779769788E-02  0.13100115455E-01  0.44904483549E+01  0.44904792279E+01  0.10000000000E-01 0. -1.
      611    1    3    3    0    0  0.54761410160E-03 -0.15523070621E-01  0.74702821089E+01  0.74703049504E+01  0.10000000000E-01 0.  1.
</event>
<event>
 7   0  0.6206631E-02  0.9118800E+02  0.7818608E-02  0.1180000E+00
       11   -1    0    0    0    0  0.00000000000E+00  0.00000000000E+00  0.11999999989E+02  0.12000000000E+02  0.51109989000E-03 0. -1.
     -623   -1    0    0    0    0  0.00000000000E+00  0.00000000000E+00  0.42561509872E-11  0.25126700000E+02  0.25126700000E+02 0.  1.
      622    2    1    2    0    0  0.49689871780E-02 -0.84369790730E-02  0.11771517054E+02  0.11771643057E+02  0.53578247932E-01 0.  0.
       11    1    1    2    0    0 -0.37519797504E-02  0.77185640392E-02  0.22819500414E+00  0.22835690207E+00  0.51109989000E-03 0. -1.
     -623    1    1    2    0    0 -0.12170074276E-02  0.71841503379E-03  0.28793115252E-03  0.25126700041E+02  0.25126700000E+02 0.  1.
     -611    1    3    3    0    0  0.20690866493E-01  0.50244403243E-02  0.28726102198E+01  0.28727065342E+01  0.10000000000E-01 0.  1.
      611    1    3    3    0    0 -0.15721879315E-01 -0.13461419397E-01  0.88989068341E+01  0.88989365224E+01  0.10000000000E-01 0. -1.
</event>
<event>
 7   0  0.6206631E-02  0.9118800E+02  0.7818608E-02  0.1180000E+00
       11   -1    0    0    0    0  0.00000000000E+00  0.00000000000E+00  0.11999999989E+02  0.12000000000E+02  0.51109989000E-03 0. -1.
     -623   -1    0    0    0    0  0.00000000000E+00  0.00000000000E+00  0.42561509872E-11  0.25126700000E+02  0.25126700000E+02 0.  1.
      622    2    1    2    0    0  0.93545586817E-01 -0.11139244439E-01  0.39712440980E+01  0.39730587877E+01  0.74441822945E-01 0.  0.
       11    1    1    2    0    0 -0.97666175143E-01  0.40468195513E-01  0.80262274044E+01  0.80269236302E+01  0.51109989000E-03 0. -1.
     -623    1    1    2    0    0  0.41205883249E-02 -0.29328951074E-01  0.25284866952E-02  0.25126717582E+02  0.25126700000E+02 0.  1.
     -611    1    3    3    0    0  0.98762550172E-01  0.52570477694E-02  0.31248004681E+01  0.31263812377E+01  0.10000000000E-01 0.  1.
      611    1    3    3    0    0 -0.52169633549E-02 -0.16396292208E-01  0.84644362990E+00  0.84667755002E+00  0.10000000000E-01 0. -1.
</event>
<event>
 7   0  0.6206631E-02  0.9118800E+02  0.7818608E-02  0.1180000E+00
       11   -1    0    0    0    0  0.00000000000E+00  0.00000000000E+00  0.11999999989E+02  0.12000000000E+02  0.51109989000E-03 0.  1.
     -623   -1    0    0    0    0  0.00000000000E+00  0.00000000000E+00  0.42561509872E-11  0.25126700000E+02  0.25126700000E+02 0.  1.
      622    2    1    2    0    0  0.22774809619E-01  0.12782209578E-02  0.11940085184E+02  0.11941778534E+02  0.19979997166E+00 0.  0.
       11    1    1    2    0    0  0.79385060580E-02 -0.22312540125E-01  0.53153480798E-01  0.58192981272E-01  0.51109989000E-03 0.  1.
     -623    1    1    2    0    0 -0.30713315677E-01  0.21034319167E-01  0.67613245564E-02  0.25126728485E+02  0.25126700000E+02 0.  1.
     -611    1    3    3    0    0  0.10323492657E+00  0.94006909503E-02  0.43090503412E+01  0.43103086509E+01  0.10000000000E-01 0.  1.
      611    1    3    3    0    0 -0.80460116955E-01 -0.81224699925E-02  0.76310348426E+01  0.76314698829E+01  0.10000000000E-01 0. -1.
</event>
<event>
 7   0  0.6206631E-02  0.9118800E+02  0.7818608E-02  0.1180000E+00
       11   -1    0    0    0    0  0.00000000000E+00  0.00000000000E+00  0.11999999989E+02  0.12000000000E+02  0.51109989000E-03 0.  1.
     -623   -1    0    0    0    0  0.00000000000E+00  0.00000000000E+00  0.42561509872E-11  0.25126700000E+02  0.25126700000E+02 0.  1.
      622    2    1    2    0    0 -0.56340118413E-02 -0.27468868940E-01  0.10517029265E+02  0.10517567898E+02  0.10268227999E+00 0.  0.
       11    1    1    2    0    0  0.18642955944E-02  0.31959439328E-01  0.14820855983E+01  0.14824314025E+01  0.51109989000E-03 0.  1.
     -623    1    1    2    0    0  0.37697162469E-02 -0.44905703880E-02  0.88512617147E-03  0.25126700700E+02  0.25126700000E+02 0.  1.
     -611    1    3    3    0    0  0.13820861353E-01 -0.59045317438E-01  0.45512045103E+01  0.45516194767E+01  0.10000000000E-01 0. -1.
      611    1    3    3    0    0 -0.19454873194E-01  0.31576448498E-01  0.59658247543E+01  0.59659484211E+01  0.10000000000E-01 0.  1.
</event>
<event>
 7   0  0.6206631E-02  0.9118800E+02  0.7818608E-02  0.1180000E+00
       11   -1    0    0    0    0  0.00000000000E+00  0.00000000000E+00  0.11999999989E+02  0.12000000000E+02  0.51109989000E-03 0. -1.
     -623   -1    0    0    0    0  0.00000000000E+00  0.00000000000E+00  0.42561509872E-11  0.25126700000E+02  0.25126700000E+02 0.  1.
      622    2    1    2    0    0 -0.54976359352E-02  0.44198806749E-01  0.54790410981E+01  0.54794856142E+01  0.53735306332E-01 0.  0.
       11    1    1    2    0    0  0.95084790297E-02 -0.40447916789E-01  0.65203813720E+01  0.65205137791E+01  0.51109989000E-03 0. -1.
     -623    1    1    2    0    0 -0.40108430945E-02 -0.37508899592E-02  0.57751898975E-03  0.25126700607E+02  0.25126700000E+02 0.  1.
     -611    1    3    3    0    0  0.19425461242E-02  0.35480071574E-01  0.16440652937E+01  0.16444796438E+01  0.10000000000E-01 0.  1.
      611    1    3    3    0    0 -0.74401820594E-02  0.87187351749E-02  0.38349758044E+01  0.38350059704E+01  0.10000000000E-01 0. -1.
</event>
<event>
 7   0  0.6206631E-02  0.9118800E+02  0.7818608E-02  0.1180000E+00
       11   -1    0    0    0    0  0.00000000000E+00  0.00000000000E+00  0.11999999989E+02  0.12000000000E+02  0.51109989000E-03 0.  1.
     -623   -1    0    0    0    0  0.00000000000E+00  0.00000000000E+00  0.42561509872E-11  0.25126700000E+02  0.25126700000E+02 0.  1.
      622    2    1    2    0    0  0.44864237602E-02  0.88784700361E-02  0.11719928691E+02  0.11720310475E+02  0.94075297196E-01 0.  0.
       11    1    1    2    0    0 -0.65713085643E-02 -0.60265594296E-02  0.27954664302E+00  0.27968927109E+00  0.51109989000E-03 0.  1.
     -623    1    1    2    0    0  0.20848848041E-02 -0.28519106065E-02  0.52465537219E-03  0.25126700254E+02  0.25126700000E+02 0.  1.
     -611    1    3    3    0    0  0.15554619040E-02 -0.70359553445E-02  0.11237668776E+02  0.11237675536E+02  0.10000000000E-01 0.  1.
      611    1    3    3    0    0  0.29309618562E-02  0.15914425381E-01  0.48225991467E+00  0.48263493944E+00  0.10000000000E-01 0. -1.
</event>
<event>
 7   0  0.6206631E-02  0.9118800E+02  0.7818608E-02  0.1180000E+00
       11   -1    0    0    0    0  0.00000000000E+00  0.00000000000E+00  0.11999999989E+02  0.12000000000E+02  0.51109989000E-03 0. -1.
     -623   -1    0    0    0    0  0.00000000000E+00  0.00000000000E+00  0.42561509872E-11  0.25126700000E+02  0.25126700000E+02 0.  1.
      622    2    1    2    0    0  0.16662778610E-02  0.27852482731E-02  0.11997527632E+02  0.11998091447E+02  0.11626933559E+00 0.  0.
       11    1    1    2    0    0  0.20596228975E-03  0.69739730059E-03  0.16885892615E-02  0.19082296243E-02  0.51109989000E-03 0. -1.
     -623    1    1    2    0    0 -0.18722401508E-02 -0.34826455737E-02  0.78376791704E-03  0.25126700323E+02  0.25126700000E+02 0.  1.
     -611    1    3    3    0    0  0.26503241110E-01 -0.46742406863E-01  0.41183397882E+01  0.41187024516E+01  0.10000000000E-01 0.  1.
      611    1    3    3    0    0 -0.24836963249E-01  0.49527655136E-01  0.78791878438E+01  0.78793889954E+01  0.10000000000E-01 0. -1.
</event>
<event>
 7   0  0.6206631E-02  0.9118800E+02  0.7818608E-02  0.1180000E+00
       11   -1    0    0    0    0  0.00000000000E+00  0.00000000000E+00  0.11999999989E+02  0.12000000000E+02  0.51109989000E-03 0.  1.
     -623   -1    0    0    0    0  0.00000000000E+00  0.00000000000E+00  0.42561509872E-11  0.25126700000E+02  0.25126700000E+02 0. -1.
      622    2    1    2    0    0 -0.20133339281E-01  0.26667824414E-01  0.10099961444E+02  0.10100616063E+02  0.11003252634E+00 0.  0.
       11    1    1    2    0    0 -0.43741296871E-01 -0.77534718502E-01  0.18971635498E+01  0.18992510970E+01  0.51109989000E-03 0.  1.
     -623    1    1    2    0    0  0.63874636153E-01  0.50866894088E-01  0.28749952303E-02  0.25126832840E+02  0.25126700000E+02 0. -1.
     -611    1    3    3    0    0 -0.50493547714E-01  0.51422570633E-01  0.73029729882E+01  0.73033354261E+01  0.10000000000E-01 0.  1.
      611    1    3    3    0    0  0.30360208433E-01 -0.24754746219E-01  0.27969884559E+01  0.27972806370E+01  0.10000000000E-01 0. -1.
</event>
<event>
 7   0  0.6206631E-02  0.9118800E+02  0.7818608E-02  0.1180000E+00
       11   -1    0    0    0    0  0.00000000000E+00  0.00000000000E+00  0.11999999989E+02  0.12000000000E+02  0.51109989000E-03 0. -1.
     -623   -1    0    0    0    0  0.00000000000E+00  0.00000000000E+00  0.42561509872E-11  0.25126700000E+02  0.25126700000E+02 0. -1.
      622    2    1    2    0    0  0.69404153178E-01  0.65293718643E-01  0.74073390048E+01  0.74084830701E+01  0.88713363545E-01 0.  0.
       11    1    1    2    0    0 -0.64202168116E-01 -0.62810986824E-01  0.45906375918E+01  0.45915161873E+01  0.51109989000E-03 0. -1.
     -623    1    1    2    0    0 -0.52019850620E-02 -0.24827318188E-02  0.20233925463E-02  0.25126700743E+02  0.25126700000E+02 0. -1.
     -611    1    3    3    0    0  0.37964009279E-01 -0.15414128582E-01  0.20403835638E+01  0.20408194307E+01  0.10000000000E-01 0. -1.
      611    1    3    3    0    0  0.31440143899E-01  0.80707847225E-01  0.53669554410E+01  0.53676636394E+01  0.10000000000E-01 0.  1.
</event>
<event>
 7   0  0.6206631E-02  0.9118800E+02  0.7818608E-02  0.1180000E+00
       11   -1    0    0    0    0  0.00000000000E+00  0.00000000000E+00  0.11999999989E+02  0.12000000000E+02  0.51109989000E-03 0.  1.
     -623   -1    0    0    0    0  0.00000000000E+00  0.00000000000E+00  0.42561509872E-11  0.25126700000E+02  0.25126700000E+02 0. -1.
      622    2    1    2    0    0  0.21457734833E-01  0.66278590751E-02  0.10715261406E+02  0.10715432041E+02  0.56146745554E-01 0.  0.
       11    1    1    2    0    0 -0.23027417712E-01 -0.70169098901E-02  0.12843422204E+01  0.12845679038E+01  0.51109989000E-03 0.  1.
     -623    1    1    2    0    0  0.15696828785E-02  0.38905081502E-03  0.39636232607E-03  0.25126700055E+02  0.25126700000E+02 0. -1.
     -611    1    3    3    0    0  0.15700173240E-01 -0.22454573518E-01  0.50433552573E+01  0.50434395956E+01  0.10000000000E-01 0.  1.
      611    1    3    3    0    0  0.57575615931E-02  0.29082432593E-01  0.56719061490E+01  0.56719924454E+01  0.10000000000E-01 0. -1.
</event>
<event>
 7   0  0.6206631E-02  0.9118800E+02  0.7818608E-02  0.1180000E+00
       11   -1    0    0    0    0  0.00000000000E+00  0.00000000000E+00  0.11999999989E+02  0.12000000000E+02  0.51109989000E-03 0. -1.
     -623   -1    0    0    0    0  0.00000000000E+00  0.00000000000E+00  0.42561509872E-11  0.25126700000E+02  0.25126700000E+02 0. -1.
      622    2    1    2    0    0  0.26811031212E-02 -0.17895262379E-02  0.11643703636E+02  0.11644028799E+02  0.86959303634E-01 0.  0.
       11    1    1    2    0    0 -0.29543478309E-02  0.13523317269E-02  0.35595599755E+00  0.35597119320E+00  0.51109989000E-03 0. -1.
     -623    1    1    2    0    0  0.27324470971E-03  0.43719451103E-03  0.34035546007E-03  0.25126700008E+02  0.25126700000E+02 0. -1.
     -611    1    3    3    0    0  0.18070654776E-01  0.32185954267E-01  0.85299069108E+01  0.85299926372E+01  0.10000000000E-01 0.  1.
      611    1    3    3    0    0 -0.15389551655E-01 -0.33975480505E-01  0.31137967253E+01  0.31140361619E+01  0.10000000000E-01 0. -1.
</event>
<event>
 7   0  0.6206631E-02  0.9118800E+02  0.7818608E-02  0.1180000E+00
       11   -1    0    0    0    0  0.00000000000E+00  0.00000000000E+00  0.11999999989E+02  0.12000000000E+02  0.51109989000E-03 0. -1.
     -623   -1    0    0    0    0  0.00000000000E+00  0.00000000000E+00  0.42561509872E-11  0.25126700000E+02  0.25126700000E+02 0.  1.
      622    2    1    2    0    0 -0.84622739547E-03 -0.48333579049E-03  0.11996686153E+02  0.11997158580E+02  0.10646307157E+00 0.  0.
       11    1    1    2    0    0  0.93475645195E-05  0.71277553873E-03  0.27026251993E-02  0.28413979761E-02  0.51109989000E-03 0. -1.
     -623    1    1    2    0    0  0.83687983095E-03 -0.22943974824E-03  0.61121111639E-03  0.25126700022E+02  0.25126700000E+02 0.  1.
     -611    1    3    3    0    0  0.41920213635E-02 -0.52319436409E-01  0.59653188211E+01  0.59655581074E+01  0.10000000000E-01 0.  1.
      611    1    3    3    0    0 -0.50382487590E-02  0.51836100619E-01  0.60313673318E+01  0.60316004722E+01  0.10000000000E-01 0. -1.
</event>
<event>
 7   0  0.6206631E-02  0.9118800E+02  0.7818608E-02  0.1180000E+00
       11   -1    0    0    0    0  0.00000000000E+00  0.00000000000E+00  0.11999999989E+02  0.12000000000E+02  0.51109989000E-03 0.  1.
     -623   -1    0    0    0    0  0.00000000000E+00  0.00000000000E+00  0.42561509872E-11  0.25126700000E+02  0.25126700000E+02 0. -1.
      622    2    1    2    0    0 -0.30850594589E-01 -0.26699388559E-01  0.10977645766E+02  0.10978126396E+02  0.94276101695E-01 0.  0.
       11    1    1    2    0    0 -0.69827520978E-02 -0.43052718159E-01  0.10208168037E+01  0.10217482582E+01  0.51109989000E-03 0.  1.
     -623    1    1    2    0    0  0.37833346687E-01  0.69752106718E-01  0.15374196482E-02  0.25126825346E+02  0.25126700000E+02 0. -1.
     -611    1    3    3    0    0 -0.24546668610E-01  0.20427748939E-01  0.81100662790E+01  0.81101353183E+01  0.10000000000E-01 0.  1.
      611    1    3    3    0    0 -0.63039259784E-02 -0.47127137498E-01  0.28675794868E+01  0.28679910773E+01  0.10000000000E-01 0.  1.
</event>
<event>
 7   0  0.6206631E-02  0.9118800E+02  0.7818608E-02  0.1180000E+00
       11   -1    0    0    0    0  0.00000000000E+00  0.00000000000E+00  0.11999999989E+02  0.12000000000E+02  0.51109989000E-03 0. -1.
     -623   -1    0    0    0    0  0.00000000000E+00  0.00000000000E+00  0.42561509872E-11  0.25126700000E+02  0.25126700000E+02 0. -1.
      622    2    1    2    0    0  0.25777130199E-01 -0.78577764203E-02  0.94863739357E+01  0.94868354654E+01  0.89613023829E-01 0.  0.
       11    1    1    2    0    0 -0.22871174451E-01  0.12051672508E-01  0.25130309875E+01  0.25131640095E+01  0.51109989000E-03 0. -1.
     -623    1    1    2    0    0 -0.29059557486E-02 -0.41938960874E-02  0.59506590927E-03  0.25126700525E+02  0.25126700000E+02 0. -1.
     -611    1    3    3    0    0  0.74772570879E-02 -0.43465718439E-01  0.67379912395E+01  0.67381430025E+01  0.10000000000E-01 0. -1.
      611    1    3    3    0    0  0.18299873111E-01  0.35607942019E-01  0.27483826962E+01  0.27486924629E+01  0.10000000000E-01 0.  1.
</event>
<event>
 7   0  0.6206631E-02  0.9118800E+02  0.7818608E-02  0.1180000E+00
       11   -1    0    0    0    0  0.00000000000E+00  0.00000000000E+00  0.11999999989E+02  0.12000000000E+02  0.51109989000E-03 0.  1.
     -623   -1    0    0    0    0  0.00000000000E+00  0.00000000000E+00  0.42561509872E-11  0.25126700000E+02  0.25126700000E+02 0.  1.
      622    2    1    2    0    0  0.16175027057E-01  0.10477164041E-01  0.10718106522E+02  0.10718407407E+02  0.77964900511E-01 0.  0.
       11    1    1    2    0    0  0.73193937537E-02 -0.18504131393E-01  0.12814257235E+01  0.12815803222E+01  0.51109989000E-03 0.  1.
     -623    1    1    2    0    0 -0.23494420810E-01  0.80269673522E-02  0.46774361818E-03  0.25126712271E+02  0.25126700000E+02 0.  1.
     -611    1    3    3    0    0  0.22396618429E-02  0.40852160198E-01  0.73385328572E+01  0.73386537192E+01  0.10000000000E-01 0. -1.
      611    1    3    3    0    0  0.13935365214E-01 -0.30374996157E-01  0.33795736649E+01  0.33797536880E+01  0.10000000000E-01 0.  1.
</event>
<event>
 7   0  0.6206631E-02  0.9118800E+02  0.7818608E-02  0.1180000E+00
       11   -1    0    0    0    0  0.00000000000E+00  0.00000000000E+00  0.11999999989E+02  0.12000000000E+02  0.51109989000E-03 0. -1.
     -623   -1    0    0    0    0  0.00000000000E+00  0.00000000000E+00  0.42561509872E-11  0.25126700000E+02  0.25126700000E+02 0. -1.
      622    2    1    2    0    0  0.11448410016E-02 -0.63875386228E-02  0.11962255563E+02  0.11962451830E+02  0.68216797858E-01 0.  0.
       11    1    1    2    0    0 -0.16462755698E-01 -0.84565420751E-02  0.32655012836E-01  0.37538600340E-01  0.51109989000E-03 0. -1.
     -623    1    1    2    0    0  0.15317914696E-01  0.14844080698E-01  0.50894133855E-02  0.25126709569E+02  0.25126700000E+02 0. -1.
     -611    1    3    3    0    0 -0.97500729934E-02  0.18502880190E-02  0.54008820082E+00  0.54027192427E+00  0.10000000000E-01 0.  1.
      611    1    3    3    0    0  0.10894913995E-01 -0.82378266418E-02  0.11422167362E+02  0.11422179906E+02  0.10000000000E-01 0. -1.
</event>
<event>
 7   0  0.6206631E-02  0.9118800E+02  0.7818608E-02  0.1180000E+00
       11   -1    0    0    0    0  0.00000000000E+00  0.00000000000E+00  0.11999999989E+02  0.12000000000E+02  0.51109989000E-03 0. -1.
     -623   -1    0    0    0    0  0.00000000000E+00  0.00000000000E+00  0.42561509872E-11  0.25126700000E+02  0.25126700000E+02 0. -1.
      622    2    1    2    0    0  0.45976226784E-01  0.55757134461E-01  0.87197048858E+01  0.87204975585E+01  0.92745353704E-01 0.  0.
       11    1    1    2    0    0 -0.51392813479E-01 -0.57376657909E-01  0.32785969793E+01  0.32795017481E+01  0.51109989000E-03 0. -1.
     -623    1    1    2    0    0  0.54165866945E-02  0.16195234483E-02  0.16981240483E-02  0.25126700693E+02  0.25126700000E+02 0. -1.
     -611    1    3    3    0    0  0.44000713492E-01 -0.13433417493E-01  0.39331823990E+01  0.39334641606E+01  0.10000000000E-01 0.  1.
      611    1    3    3    0    0  0.19755132919E-02  0.69190551954E-01  0.47865224868E+01  0.47870333978E+01  0.10000000000E-01 0. -1.
</event>
<event>
 7   0  0.6206631E-02  0.9118800E+02  0.7818608E-02  0.1180000E+00
       11   -1    0    0    0    0  0.00000000000E+00  0.00000000000E+00  0.11999999989E+02  0.12000000000E+02  0.51109989000E-03 0.  1.
     -623   -1    0    0    0    0  0.00000000000E+00  0.00000000000E+00  0.42561509872E-11  0.25126700000E+02  0.25126700000E+02 0. -1.
      622    2    1    2    0    0 -0.10541559882E-01  0.13543197407E-01  0.11778146752E+02  0.11778516219E+02  0.91699911114E-01 0.  0.
       11    1    1    2    0    0  0.11019423001E-01 -0.17669486463E-01  0.22050169439E+00  0.22148340092E+00  0.51109989000E-03 0.  1.
     -623    1    1    2    0    0 -0.47786311832E-03  0.41262890560E-02  0.13515426483E-02  0.25126700380E+02  0.25126700000E+02 0. -1.
     -611    1    3    3    0    0  0.14319967276E-01  0.46782642285E-01  0.70397084748E+01  0.70398855876E+01  0.10000000000E-01 0. -1.
      611    1    3    3    0    0 -0.24861527158E-01 -0.33239444878E-01  0.47384382773E+01  0.47386306317E+01  0.10000000000E-01 0.  1.
</event>
<event>
 7   0  0.6206631E-02  0.9118800E+02  0.7818608E-02  0.1180000E+00
       11   -1    0    0    0    0  0.00000000000E+00  0.00000000000E+00  0.11999999989E+02  0.12000000000E+02  0.51109989000E-03 0.  1.
     -623   -1    0    0    0    0  0.00000000000E+00  0.00000000000E+00  0.42561509872E-11  0.25126700000E+02  0.25126700000E+02 0.  1.
      622    2    1    2    0    0  0.34674974395E-02  0.81874336132E-02  0.11919037335E+02  0.11919569672E+02  0.11229919338E+00 0.  0.
       11    1    1    2    0    0 -0.50081958582E-03  0.26985551319E-02  0.80379318658E-01  0.80427788178E-01  0.51109989000E-03 0.  1.
     -623    1    1    2    0    0 -0.29666778537E-02 -0.10885988745E-01  0.58333543478E-03  0.25126702540E+02  0.25126700000E+02 0.  1.
     -611    1    3    3    0    0  0.27178515565E-01 -0.38129540638E-01  0.30666051785E+01  0.30669789458E+01  0.10000000000E-01 0. -1.
      611    1    3    3    0    0 -0.23711018126E-01  0.46316974251E-01  0.88524321566E+01  0.88525907260E+01  0.10000000000E-01 0.  1.
</event>
<event>
 7   0  0.6206631E-02  0.9118800E+02  0.7818608E-02  0.1180000E+00
       11   -1    0    0    0    0  0.00000000000E+00  0.00000000000E+00  0.11999999989E+02  0.12000000000E+02  0.51109989000E-03 0. -1.
     -623   -1    0    0    0    0  0.00000000000E+00  0.00000000000E+00  0.42561509872E-11  0.25126700000E+02  0.25126700000E+02 0.  1.
      622    2    1    2    0    0 -0.22702583147E-01 -0.45963973027E-01  0.64564009983E+01  0.64572507900E+01  0.91355461384E-01 0.  0.
       11    1    1    2    0    0  0.30137501530E-01  0.49196803125E-01  0.55424475783E+01  0.55427478757E+01  0.51109989000E-03 0. -1.
     -623    1    1    2    0    0 -0.74349183835E-02 -0.32328300977E-02  0.11514126069E-02  0.25126701334E+02  0.25126700000E+02 0.  1.
     -611    1    3    3    0    0  0.13496408788E-01 -0.89716956335E-02  0.47448344034E+01  0.47448726179E+01  0.10000000000E-01 0. -1.
      611    1    3    3    0    0 -0.36198991935E-01 -0.36992277394E-01  0.17115665948E+01  0.17123781721E+01  0.10000000000E-01 0.  1.
</event>
<event>
 7   0  0.6206631E-02  0.9118800E+02  0.7818608E-02  0.1180000E+00
       11   -1    0    0    0    0  0.00000000000E+00  0.00000000000E+00  0.11999999989E+02  0.12000000000E+02  0.51109989000E-03 0.  1.
     -623   -1    0    0    0    0  0.00000000000E+00  0.00000000000E+00  0.42561509872E-11  0.25126700000E+02  0.25126700000E+02 0. -1.
      622    2    1    2    0    0  0.47733715839E-02 -0.12512325453E-02  0.11624044769E+02  0.11624184202E+02  0.56720436341E-01 0.  0.
       11    1    1    2    0    0 -0.49196482029E-02 -0.66878187903E-05  0.37578321627E+00  0.37581576582E+00  0.51109989000E-03 0.  1.
     -623    1    1    2    0    0  0.14627661903E-03  0.12579203641E-02  0.17200366351E-03  0.25126700033E+02  0.25126700000E+02 0. -1.
     -611    1    3    3    0    0 -0.99467581772E-02 -0.47135612266E-02  0.89082071018E+00  0.89094483182E+00  0.10000000000E-01 0.  1.
      611    1    3    3    0    0  0.14720129761E-01  0.34623286813E-02  0.10733224059E+02  0.10733239370E+02  0.10000000000E-01 0.  1.
</event>
<event>
 7   0  0.6206631E-02  0.9118800E+02  0.7818608E-02  0.1180000E+00
       11   -1    0    0    0    0  0.00000000000E+00  0.00000000000E+00  0.11999999989E+02  0.12000000000E+02  0.51109989000E-03 0. -1.
     -623   -1    0    0    0    0  0.00000000000E+00  0.00000000000E+00  0.42561509872E-11  0.25126700000E+02  0.25126700000E+02 0. -1.
      622    2    1    2    0    0  0.25402270100E-01  0.12894719216E-02  0.92444697556E+01  0.92449750722E+01  0.93252795118E-01 0.  0.
       11    1    1    2    0    0 -0.26210510556E-01 -0.16359558163E-02  0.27548996890E+01  0.27550249046E+01  0.51109989000E-03 0. -1.
     -623    1    1    2    0    0  0.80824045666E-03  0.34648389461E-03  0.63054452291E-03  0.25126700023E+02  0.25126700000E+02 0. -1.
     -611    1    3    3    0    0 -0.11649958805E-01  0.22098146434E-01  0.71488419662E+01  0.71488926070E+01  0.10000000000E-01 0. -1.
      611    1    3    3    0    0  0.37052228905E-01 -0.20808674512E-01  0.20956277895E+01  0.20960824651E+01  0.10000000000E-01 0.  1.
</event>
<event>
 7   0  0.6206631E-02  0.9118800E+02  0.7818608E-02  0.1180000E+00
       11   -1    0    0    0    0  0.00000000000E+00  0.00000000000E+00  0.11999999989E+02  0.12000000000E+02  0.51109989000E-03 0.  1.
     -623   -1    0    0    0    0  0.00000000000E+00  0.00000000000E+00  0.42561509872E-11  0.25126700000E+02  0.25126700000E+02 0.  1.
      622    2    1    2    0    0 -0.76308197308E-02 -0.90796236265E-02  0.11547783622E+02  0.11548300883E+02  0.10865556184E+00 0.  0.
       11    1    1    2    0    0  0.10952314958E-01  0.78891111689E-02  0.45149685141E+00  0.45169885912E+00  0.51109989000E-03 0.  1.
     -623    1    1    2    0    0 -0.33214952268E-02  0.11905124577E-02  0.71951571464E-03  0.25126700258E+02  0.25126700000E+02 0.  1.
     -611    1    3    3    0    0 -0.21498189362E-01  0.66037941813E-02  0.10998457367E+02  0.10998484907E+02  0.10000000000E-01 0.  1.
      611    1    3    3    0    0  0.13867369631E-01 -0.15683417808E-01  0.54932625476E+00  0.54981597621E+00  0.10000000000E-01 0. -1.
</event>
<event>
 7   0  0.6206631E-02  0.9118800E+02  0.7818608E-02  0.1180000E+00
       11   -1    0    0    0    0  0.00000000000E+00  0.00000000000E+00  0.11999999989E+02  0.12000000000E+02  0.51109989000E-03 0. -1.
     -623   -1    0    0    0    0  0.00000000000E+00  0.00000000000E+00  0.42561509872E-11  0.25126700000E+02  0.25126700000E+02 0.  1.
      622    2    1    2    0    0  0.34998962577E-01 -0.10070840618E+00  0.11803442331E+02  0.11804164563E+02  0.75386144930E-01 0.  0.
       11    1    1    2    0    0  0.10771537403E+00 -0.58048455200E-01  0.15168739637E+00  0.19488856404E+00  0.51109989000E-03 0. -1.
     -623    1    1    2    0    0 -0.14271433661E+00  0.15875686138E+00  0.44870261893E-01  0.25127646873E+02  0.25126700000E+02 0.  1.
     -611    1    3    3    0    0  0.44174318449E-01 -0.39037505073E-01  0.37709667017E+01  0.37714407277E+01  0.10000000000E-01 0.  1.
      611    1    3    3    0    0 -0.91753558719E-02 -0.61670901106E-01  0.80324756292E+01  0.80327238357E+01  0.10000000000E-01 0. -1.
</event>
<event>
 7   0  0.6206631E-02  0.9118800E+02  0.7818608E-02  0.1180000E+00
       11   -1    0    0    0    0  0.00000000000E+00  0.00000000000E+00  0.11999999989E+02  0.12000000000E+02  0.51109989000E-03 0.  1.
     -623   -1    0    0    0    0  0.00000000000E+00  0.00000000000E+00  0.42561509872E-11  0.25126700000E+02  0.25126700000E+02 0.  1.
      622    2    1    2    0    0 -0.11913489436E-02  0.92360268382E-03  0.11989390251E+02  0.11990436320E+02  0.15837382887E+00 0.  0.
       11    1    1    2    0    0  0.42727412952E-02  0.15017903486E-02  0.84073400243E-02  0.95632777774E-02  0.51109989000E-03 0.  1.
     -623    1    1    2    0    0 -0.30813923516E-02 -0.24253930324E-02  0.22023979284E-02  0.25126700403E+02  0.25126700000E+02 0.  1.
     -611    1    3    3    0    0 -0.41479298785E-01 -0.71315046166E-03  0.94016255225E+00  0.94113052520E+00  0.10000000000E-01 0. -1.
      611    1    3    3    0    0  0.40287949841E-01  0.16367531455E-02  0.11049227699E+02  0.11049305795E+02  0.10000000000E-01 0.  1.
</event>
<event>
 7   0  0.6206631E-02  0.9118800E+02  0.7818608E-02  0.1180000E+00
       11   -1    0    0    0    0  0.00000000000E+00  0.00000000000E+00  0.11999999989E+02  0.12000000000E+02  0.51109989000E-03 0. -1.
     -623   -1    0    0    0    0  0.00000000000E+00  0.00000000000E+00  0.42561509872E-11  0.25126700000E+02  0.25126700000E+02 0. -1.
      622    2    1    2    0    0  0.74312839441E-03 -0.40973210657E-02  0.11851400847E+02  0.11851747027E+02  0.90488731572E-01 0.  0.
       11    1    1    2    0    0  0.23099819479E-01 -0.47571258113E-02  0.14635096326E+00  0.14823999991E+00  0.51109989000E-03 0. -1.
     -623    1    1    2    0    0 -0.23842947873E-01  0.88544468770E-02  0.22481786556E-02  0.25126712973E+02  0.25126700000E+02 0. -1.
     -611    1    3    3    0    0  0.14553671511E-01 -0.42744424005E-01  0.49159112296E+01  0.49161287729E+01  0.10000000000E-01 0. -1.
      611    1    3    3    0    0 -0.13810543117E-01  0.38647102940E-01  0.69354896176E+01  0.69356182540E+01  0.10000000000E-01 0.  1.
</event>
<event>
 7   0  0.6206631E-02  0.9118800E+02  0.7818608E-02  0.1180000E+00
       11   -1    0    0    0    0  0.00000000000E+00  0.00000000000E+00  0.11999999989E+02  0.12000000000E+02  0.51109989000E-03 0.  1.
     -623   -1    0    0    0    0  0.00000000000E+00  0.00000000000E+00  0.42561509872E-11  0.25126700000E+02  0.25126700000E+02 0. -1.
      622    2    1    2    0    0  0.17093078527E-01  0.14748170310E-01  0.11570997395E+02  0.11571265553E+02  0.75472568878E-01 0.  0.
       11    1    1    2    0    0 -0.16663355168E-01 -0.17136386210E-01  0.42806719836E+00  0.42873431245E+00  0.51109989000E-03 0.  1.
     -623    1    1    2    0    0 -0.42972335902E-03  0.23882158999E-02  0.93539611979E-03  0.25126700135E+02  0.25126700000E+02 0. -1.
     -611    1    3    3    0    0 -0.13074218661E-02 -0.58001848176E-02  0.29413871676E+00  0.29436870790E+00  0.10000000000E-01 0.  1.
      611    1    3    3    0    0  0.18400500393E-01  0.20548355127E-01  0.11276858678E+02  0.11276896845E+02  0.10000000000E-01 0.  1.
</event>
<event>
 7   0  0.6206631E-02  0.9118800E+02  0.7818608E-02  0.1180000E+00
       11   -1    0    0    0    0  0.00000000000E+00  0.00000000000E+00  0.11999999989E+02  0.12000000000E+02  0.51109989000E-03 0.  1.
     -623   -1    0    0    0    0  0.00000000000E+00  0.00000000000E+00  0.42561509872E-11  0.25126700000E+02  0.25126700000E+02 0.  1.
      622    2    1    2    0    0 -0.24441079052E-01 -0.21174703021E-01  0.10141639592E+02  0.10142248351E+02  0.10631203697E+00 0.  0.
       11    1    1    2    0    0  0.92037578700E-02  0.32257261535E-01  0.18574416223E+01  0.18577445684E+01  0.51109989000E-03 0.  1.
     -623    1    1    2    0    0  0.15237321182E-01 -0.11082558514E-01  0.91877445734E-03  0.25126707081E+02  0.25126700000E+02 0.  1.
     -611    1    3    3    0    0 -0.64695885287E-01 -0.33584331579E-02  0.64358135307E+01  0.64361473444E+01  0.10000000000E-01 0.  1.
      611    1    3    3    0    0  0.40254806235E-01 -0.17816269863E-01  0.37058260616E+01  0.37061010062E+01  0.10000000000E-01 0. -1.
</event>
<event>
 7   0  0.6206631E-02  0.9118800E+02  0.7818608E-02  0.1180000E+00
       11   -1    0    0    0    0  0.00000000000E+00  0.00000000000E+00  0.11999999989E+02  0.12000000000E+02  0.51109989000E-03 0. -1.
     -623   -1    0    0    0    0  0.00000000000E+00  0.00000000000E+00  0.42561509872E-11  0.25126700000E+02  0.25126700000E+02 0. -1.
      622    2    1    2    0    0 -0.41660903663E-02  0.52020565761E-01  0.10337590258E+02  0.10338319633E+02  0.11116202585E+00 0.  0.
       11    1    1    2    0    0  0.45438214536E-02 -0.62721207245E-01  0.16604875665E+01  0.16616780121E+01  0.51109989000E-03 0. -1.
     -623    1    1    2    0    0 -0.37773108728E-03  0.10700641483E-01  0.19221645912E-02  0.25126702355E+02  0.25126700000E+02 0. -1.
     -611    1    3    3    0    0 -0.35234508632E-01 -0.13729067029E-01  0.18580791781E+01  0.18584908367E+01  0.10000000000E-01 0. -1.
      611    1    3    3    0    0  0.31068418266E-01  0.65749632790E-01  0.84795110799E+01  0.84798287963E+01  0.10000000000E-01 0.  1.
</event>
<event>
 7   0  0.6206631E-02  0.9118800E+02  0.7818608E-02  0.1180000E+00
       11   -1    0    0    0    0  0.00000000000E+00  0.00000000000E+00  0.11999999989E+02  0.12000000000E+02  0.51109989000E-03 0. -1.
     -623   -1    0    0    0    0  0.00000000000E+00  0.00000000000E+00  0.42561509872E-11  0.25126700000E+02  0.25126700000E+02 0. -1.
      622    2    1    2    0    0  0.43573201987E-01 -0.14203524019E-01  0.11786136317E+02  0.11786611833E+02  0.95440364781E-01 0.  0.
       11    1    1    2    0    0 -0.40384417528E-01 -0.42780911258E-02  0.20948005872E+00  0.21338078514E+00  0.51109989000E-03 0. -1.
     -623    1    1    2    0    0 -0.31887844598E-02  0.18481615144E-01  0.43836135733E-02  0.25126707382E+02  0.25126700000E+02 0. -1.
     -611    1    3    3    0    0 -0.25934257158E-01  0.29475607437E-02  0.52793014777E+01  0.52793754712E+01  0.10000000000E-01 0.  1.
      611    1    3    3    0    0  0.69507459145E-01 -0.17151084762E-01  0.65068348391E+01  0.65072363619E+01  0.10000000000E-01 0. -1.
</event>
<event>
 7   0  0.6206631E-02  0.9118800E+02  0.7818608E-02  0.1180000E+00
       11   -1    0    0    0    0  0.00000000000E+00  0.00000000000E+00  0.11999999989E+02  0.12000000000E+02  0.51109989000E-03 0. -1.
     -623   -1    0    0    0    0  0.00000000000E+00  0.00000000000E+00  0.42561509872E-11  0.25126700000E+02  0.25126700000E+02 0.  1.
      622    2    1    2    0    0  0.99920469595E-02 -0.15220588219E-01  0.11040940511E+02  0.11041056331E+02  0.47180822444E-01 0.  0.
       11    1    1    2    0    0 -0.97560197074E-02  0.16275439085E-01  0.95875574583E+00  0.95894364340E+00  0.51109989000E-03 0. -1.
     -623    1    1    2    0    0 -0.23602725211E-03 -0.10548508654E-02  0.30373179925E-03  0.25126700025E+02  0.25126700000E+02 0.  1.
     -611    1    3    3    0    0  0.16978431507E-01  0.52072986735E-03  0.89330531130E+01  0.89330748602E+01  0.10000000000E-01 0. -1.
      611    1    3    3    0    0 -0.69863845476E-02 -0.15741318087E-01  0.21078873984E+01  0.21079814712E+01  0.10000000000E-01 0. -1.
</event>
<event>
 7   0  0.6206631E-02  0.9118800E+02  0.7818608E-02  0.1180000E+00
       11   -1    0    0    0    0  0.00000000000E+00  0.00000000000E+00  0.11999999989E+02  0.12000000000E+02  0.51109989000E-03 0. -1.
     -623   -1    0    0    0    0  0.00000000000E+00  0.00000000000E+00  0.42561509872E-11  0.25126700000E+02  0.25126700000E+02 0. -1.
      622    2    1    2    0    0 -0.19998925766E-01 -0.16032411441E+00  0.80977466691E+01  0.80998052149E+01  0.85085973870E-01 0.  0.
       11    1    1    2    0    0  0.85946198014E-01  0.11145810259E+00  0.38975197591E+01  0.39000602804E+01  0.51109989000E-03 0. -1.
     -623    1    1    2    0    0 -0.65947272248E-01  0.48866011820E-01  0.47335609509E-02  0.25126834505E+02  0.25126700000E+02 0. -1.
     -611    1    3    3    0    0  0.13254247957E-01 -0.40111883954E-02  0.36340225903E+00  0.36380347248E+00  0.10000000000E-01 0.  1.
      611    1    3    3    0    0 -0.33253173723E-01 -0.15631292601E+00  0.77343444101E+01  0.77360017424E+01  0.10000000000E-01 0. -1.
</event>
<event>
 7   0  0.6206631E-02  0.9118800E+02  0.7818608E-02  0.1180000E+00
       11   -1    0    0    0    0  0.00000000000E+00  0.00000000000E+00  0.11999999989E+02  0.12000000000E+02  0.51109989000E-03 0.  1.
     -623   -1    0    0    0    0  0.00000000000E+00  0.00000000000E+00  0.42561509872E-11  0.25126700000E+02  0.25126700000E+02 0. -1.
      622    2    1    2    0    0 -0.40976886477E-01 -0.10156529912E+00  0.11143707976E+02  0.11144761338E+02  0.10715970880E+00 0.  0.
       11    1    1    2    0    0  0.38742602069E-01  0.61999661438E-01  0.85207623115E+00  0.85520705806E+00  0.51109989000E-03 0.  1.
     -623    1    1    2    0    0  0.22342844079E-02  0.39565637682E-01  0.42157815587E-02  0.25126731604E+02  0.25126700000E+02 0. -1.
     -611    1    3    3    0    0  0.51107214982E-02 -0.34453693952E-01  0.76680162864E+01  0.76681019127E+01  0.10000000000E-01 0. -1.
      611    1    3    3    0    0 -0.46087607975E-01 -0.67111605169E-01  0.34756916900E+01  0.34766594253E+01  0.10000000000E-01 0.  1.
</event>
<event>
 7   0  0.6206631E-02  0.9118800E+02  0.7818608E-02  0.1180000E+00
       11   -1    0    0    0    0  0.00000000000E+00  0.00000000000E+00  0.11999999989E+02  0.12000000000E+02  0.51109989000E-03 0. -1.
     -623   -1    0    0    0    0  0.00000000000E+00  0.00000000000E+00  0.42561509872E-11  0.25126700000E+02  0.25126700000E+02 0. -1.
      622    2    1    2    0    0 -0.66619976717E-02  0.83987886122E-02  0.11694952451E+02  0.11695124304E+02  0.62487841178E-01 0.  0.
       11    1    1    2    0    0  0.18417083905E-01  0.50484429126E-02  0.30427023400E+00  0.30486933640E+00  0.51109989000E-03 0. -1.
     -623    1    1    2    0    0 -0.11755086234E-01 -0.13447231525E-01  0.77730445667E-03  0.25126706360E+02  0.25126700000E+02 0. -1.
     -611    1    3    3    0    0  0.25746118588E-02 -0.11606121096E-01  0.98609091332E+01  0.98609213699E+01  0.10000000000E-01 0. -1.
      611    1    3    3    0    0 -0.92366095306E-02  0.20004909708E-01  0.18340433175E+01  0.18342029337E+01  0.10000000000E-01 0.  1.
</event>
<event>
 7   0  0.6206631E-02  0.9118800E+02  0.7818608E-02  0.1180000E+00
       11   -1    0    0    0    0  0.00000000000E+00  0.00000000000E+00  0.11999999989E+02  0.12000000000E+02  0.51109989000E-03 0.  1.
     -623   -1    0    0    0    0  0.00000000000E+00  0.00000000000E+00  0.42561509872E-11  0.25126700000E+02  0.25126700000E+02 0.  1.
      622    2    1    2    0    0 -0.11434066943E-01 -0.15294317313E-01  0.11661273490E+02  0.11661940315E+02  0.12323901449E+00 0.  0.
       11    1    1    2    0    0  0.11897599810E-01  0.13349572903E-01  0.33758592085E+00  0.33805957930E+00  0.51109989000E-03 0.  1.
     -623    1    1    2    0    0 -0.46353286742E-03  0.19447444107E-02  0.11405782792E-02  0.25126700105E+02  0.25126700000E+02 0.  1.
     -611    1    3    3    0    0  0.48654041785E-01  0.11006252206E-01  0.31764020356E+01  0.31768094443E+01  0.10000000000E-01 0.  1.
      611    1    3    3    0    0 -0.60088108727E-01 -0.26300569520E-01  0.84848714544E+01  0.84851308710E+01  0.10000000000E-01 0. -1.
</event>
<event>
 7   0  0.6206631E-02  0.9118800E+02  0.7818608E-02  0.1180000E+00
       11   -1    0    0    0    0  0.00000000000E+00  0.00000000000E+00  0.11999999989E+02  0.12000000000E+02  0.51109989000E-03 0.  1.
     -623   -1    0    0    0    0  0.00000000000E+00  0.00000000000E+00  0.42561509872E-11  0.25126700000E+02  0.25126700000E+02 0.  1.
      622    2    1    2    0    0  0.14024387102E-01 -0.16805925766E-01  0.73069882835E+01  0.73074177682E+01  0.76141590180E-01 0.  0.
       11    1    1    2    0    0 -0.10732527237E-01  0.87558605516E-02  0.46925602526E+01  0.46925807225E+01  0.51109989000E-03 0.  1.
     -623    1    1    2    0    0 -0.32918598644E-02  0.80500652141E-02  0.45145304125E-03  0.25126701509E+02  0.25126700000E+02 0.  1.
     -611    1    3    3    0    0  0.40806489967E-01 -0.65210970469E-02  0.55822459822E+01  0.55824078945E+01  0.10000000000E-01 0.  1.
      611    1    3    3    0    0 -0.26782102865E-01 -0.10284828719E-01  0.17247423013E+01  0.17250098738E+01  0.10000000000E-01 0.  1.
</event>
<event>
 7   0  0.6206631E-02  0.9118800E+02  0.7818608E-02  0.1180000E+00
       11   -1    0    0    0    0  0.00000000000E+00  0.00000000000E+00  0.11999999989E+02  0.12000000000E+02  0.51109989000E-03 0.  1.
     -623   -1    0    0    0    0  0.00000000000E+00  0.00000000000E+00  0.42561509872E-11  0.25126700000E+02  0.25126700000E+02 0.  1.
      622    2    1    2    0    0 -0.62709780242E-01 -0.31848174306E-01  0.43313759122E+01  0.43329582903E+01  0.93613193546E-01 0.  0.
       11    1    1    2    0    0  0.58159364081E-01  0.24757277763E-01  0.76667796488E+01  0.76670402294E+01  0.51109989000E-03 0.  1.
     -623    1    1    2    0    0  0.45504161615E-02  0.70908965436E-02  0.18444280834E-02  0.25126701480E+02  0.25126700000E+02 0.  1.
     -611    1    3    3    0    0 -0.14563742899E-01  0.23001200984E-01  0.24043148821E+01  0.24044898024E+01  0.10000000000E-01 0.  1.
      611    1    3    3    0    0 -0.48146037343E-01 -0.54849375291E-01  0.19270610302E+01  0.19284684879E+01  0.10000000000E-01 0. -1.
</event>
<event>
 7   0  0.6206631E-02  0.9118800E+02  0.7818608E-02  0.1180000E+00
       11   -1    0    0    0    0  0.00000000000E+00  0.00000000000E+00  0.11999999989E+02  0.12000000000E+02  0.51109989000E-03 0.  1.
     -623   -1    0    0    0    0  0.00000000000E+00  0.00000000000E+00  0.42561509872E-11  0.25126700000E+02  0.25126700000E+02 0. -1.
      622    2    1    2    0    0 -0.15461635939E-03  0.12948226077E-01  0.92978879306E+01  0.92984428517E+01  0.10075621612E+00 0.  0.
       11    1    1    2    0    0  0.78239386520E-02 -0.76380015950E-02  0.27015332350E+01  0.27015554101E+01  0.51109989000E-03 0.  1.
     -623    1    1    2    0    0 -0.76693222926E-02 -0.53102244822E-02  0.57882356017E-03  0.25126701738E+02  0.25126700000E+02 0. -1.
     -611    1    3    3    0    0  0.32642858688E-01  0.37672017359E-01  0.31561694960E+01  0.31565789432E+01  0.10000000000E-01 0. -1.
      611    1    3    3    0    0 -0.32797475047E-01 -0.24723791282E-01  0.61417184346E+01  0.61418639085E+01  0.10000000000E-01 0.  1.
</event>
<event>
 7   0  0.6206631E-02  0.9118800E+02  0.7818608E-02  0.1180000E+00
       11   -1    0    0    0    0  0.00000000000E+00  0.00000000000E+00  0.11999999989E+02  0.12000000000E+02  0.51109989000E-03 0.  1.
     -623   -1    0    0    0    0  0.00000000000E+00  0.00000000000E+00  0.42561509872E-11  0.25126700000E+02  0.25126700000E+02 0. -1.
      622    2    1    2    0    0 -0.15225229221E-03 -0.28366064118E-02  0.11997303349E+02  0.11997983587E+02  0.12772795282E+00 0.  0.
       11    1    1    2    0    0 -0.17967258231E-03 -0.12091314023E-02  0.15195342596E-02  0.20160576538E-02  0.51109989000E-03 0.  1.
     -623    1    1    2    0    0  0.33192487452E-03  0.40457378140E-02  0.11771057148E-02  0.25126700355E+02  0.25126700000E+02 0. -1.
     -611    1    3    3    0    0 -0.10320373007E-01 -0.52290314325E-01  0.27368326413E+01  0.27373698496E+01  0.10000000000E-01 0. -1.
      611    1    3    3    0    0  0.10168120715E-01  0.49453707913E-01  0.92604707078E+01  0.92606137372E+01  0.10000000000E-01 0.  1.
</event>
<event>
 7   0  0.6206631E-02  0.9118800E+02  0.7818608E-02  0.1180000E+00
       11   -1    0    0    0    0  0.00000000000E+00  0.00000000000E+00  0.11999999989E+02  0.12000000000E+02  0.51109989000E-03 0.  1.
     -623   -1    0    0    0    0  0.00000000000E+00  0.00000000000E+00  0.42561509872E-11  0.25126700000E+02  0.25126700000E+02 0. -1.
      622    2    1    2    0    0  0.20880125519E-02 -0.54541380849E-01  0.61519808990E+01  0.61527492830E+01  0.80471336216E-01 0.  0.
       11    1    1    2    0    0 -0.29398428609E-01  0.29006296550E-01  0.58470770084E+01  0.58472228824E+01  0.51109989000E-03 0.  1.
     -623    1    1    2    0    0  0.27310416057E-01  0.25535084299E-01  0.94208177024E-03  0.25126727835E+02  0.25126700000E+02 0. -1.
     -611    1    3    3    0    0 -0.20434949714E-01 -0.15326863960E-01  0.45898004772E+01  0.45898824517E+01  0.10000000000E-01 0. -1.
      611    1    3    3    0    0  0.22522962266E-01 -0.39214516889E-01  0.15621804218E+01  0.15628668313E+01  0.10000000000E-01 0.  1.
</event>
<event>
 7   0  0.6206631E-02  0.9118800E+02  0.7818608E-02  0.1180000E+00
       11   -1    0    0    0    0  0.00000000000E+00  0.00000000000E+00  0.11999999989E+02  0.12000000000E+02  0.51109989000E-03 0. -1.
     -623   -1    0    0    0    0  0.00000000000E+00  0.00000000000E+00  0.42561509872E-11  0.25126700000E+02  0.25126700000E+02 0.  1.
      622    2    1    2    0    0 -0.98790014493E-02  0.10440137506E-01  0.11458032447E+02  0.11458515180E+02  0.10419197939E+00 0.  0.
       11    1    1    2    0    0 -0.91933538019E-02  0.47292397135E-02  0.54137404865E+00  0.54147299585E+00  0.51109989000E-03 0. -1.
     -623    1    1    2    0    0  0.19072355251E-01 -0.15169377220E-01  0.59349311854E-03  0.25126711824E+02  0.25126700000E+02 0.  1.
     -611    1    3    3    0    0  0.36566654752E-01 -0.25426726462E-01  0.50186438771E+01  0.50188514626E+01  0.10000000000E-01 0. -1.
      611    1    3    3    0    0 -0.46445656202E-01  0.35866863968E-01  0.64393885703E+01  0.64396637171E+01  0.10000000000E-01 0. -1.
</event>
<event>
 7   0  0.6206631E-02  0.9118800E+02  0.7818608E-02  0.1180000E+00
       11   -1    0    0    0    0  0.00000000000E+00  0.00000000000E+00  0.11999999989E+02  0.12000000000E+02  0.51109989000E-03 0.  1.
     -623   -1    0    0    0    0  0.00000000000E+00  0.00000000000E+00  0.42561509872E-11  0.25126700000E+02  0.25126700000E+02 0. -1.
      622    2    1    2    0    0 -0.22156725711E-01  0.12498187573E-01  0.11817261355E+02  0.11817668770E+02  0.94773962342E-01 0.  0.
       11    1    1    2    0    0  0.22489043350E-01 -0.18765362505E-01  0.17996160288E+00  0.18233029270E+00  0.51109989000E-03 0.  1.
     -623    1    1    2    0    0 -0.33231763807E-03  0.62671749316E-02  0.27770313556E-02  0.25126700937E+02  0.25126700000E+02 0. -1.
     -611    1    3    3    0    0 -0.54902757489E-01 -0.70568784079E-02  0.81884885740E+01  0.81886817767E+01  0.10000000000E-01 0.  1.
      611    1    3    3    0    0  0.32746031778E-01  0.19555065981E-01  0.36287727808E+01  0.36289869933E+01  0.10000000000E-01 0. -1.
</event>
<event>
 7   0  0.6206631E-02  0.9118800E+02  0.7818608E-02  0.1180000E+00
       11   -1    0    0    0    0  0.00000000000E+00  0.00000000000E+00  0.11999999989E+02  0.12000000000E+02  0.51109989000E-03 0.  1.
     -623   -1    0    0    0    0  0.00000000000E+00  0.00000000000E+00  0.42561509872E-11  0.25126700000E+02  0.25126700000E+02 0.  1.
      622    2    1    2    0    0  0.27200344630E-01  0.26820213441E-01  0.10635445174E+02  0.10636195831E+02  0.12045136886E+00 0.  0.
       11    1    1    2    0    0 -0.26354426782E-01 -0.30832458982E-01  0.13632004039E+01  0.13638037978E+01  0.51109989000E-03 0.  1.
     -623    1    1    2    0    0 -0.84591784780E-03  0.40122455410E-02  0.13544114565E-02  0.25126700371E+02  0.25126700000E+02 0.  1.
     -611    1    3    3    0    0  0.46533059727E-01 -0.26796730221E-01  0.27740053294E+01  0.27745430178E+01  0.10000000000E-01 0.  1.
      611    1    3    3    0    0 -0.19332715097E-01  0.53616943662E-01  0.78614398444E+01  0.78616528133E+01  0.10000000000E-01 0. -1.
</event>
<event>
 7   0  0.6206631E-02  0.9118800E+02  0.7818608E-02  0.1180000E+00
       11   -1    0    0    0    0  0.00000000000E+00  0.00000000000E+00  0.11999999989E+02  0.12000000000E+02  0.51109989000E-03 0. -1.
     -623   -1    0    0    0    0  0.00000000000E+00  0.00000000000E+00  0.42561509872E-11  0.25126700000E+02  0.25126700000E+02 0. -1.
      622    2    1    2    0    0 -0.80866610662E-02 -0.18994665413E-02  0.11630509187E+02  0.11630712448E+02  0.68257527960E-01 0.  0.
       11    1    1    2    0    0  0.49453566726E-02  0.54799778534E-02  0.36921296505E+00  0.36928709901E+00  0.51109989000E-03 0. -1.
     -623    1    1    2    0    0  0.31413043937E-02 -0.35805113121E-02  0.27783678307E-03  0.25126700453E+02  0.25126700000E+02 0. -1.
     -611    1    3    3    0    0 -0.27570750984E-02  0.23118516716E-02  0.28683014437E+00  0.28702696361E+00  0.10000000000E-01 0. -1.
      611    1    3    3    0    0 -0.53295859679E-02 -0.42113182129E-02  0.11343679043E+02  0.11343685484E+02  0.10000000000E-01 0. -1.
</event>
<event>
 7   0  0.6206631E-02  0.9118800E+02  0.7818608E-02  0.1180000E+00
       11   -1    0    0    0    0  0.00000000000E+00  0.00000000000E+00  0.11999999989E+02  0.12000000000E+02  0.51109989000E-03 0.  1.
     -623   -1    0    0    0    0  0.00000000000E+00  0.00000000000E+00  0.42561509872E-11  0.25126700000E+02  0.25126700000E+02 0. -1.
      622    2    1    2    0    0  0.91702158850E-02 -0.41820071915E-02  0.11941108651E+02  0.11941518679E+02  0.98442657220E-01 0.  0.
       11    1    1    2    0    0 -0.20414545498E-02 -0.40378564506E-02  0.58301419486E-01  0.58478958255E-01  0.51109989000E-03 0.  1.
     -623    1    1    2    0    0 -0.71287613352E-02  0.82198636421E-02  0.58991828487E-03  0.25126702363E+02  0.25126700000E+02 0. -1.
     -611    1    3    3    0    0  0.12079409778E-01  0.22851375181E-01  0.10820887702E+02  0.10820923193E+02  0.10000000000E-01 0.  1.
      611    1    3    3    0    0 -0.29091938925E-02 -0.27033382372E-01  0.11202209494E+01  0.11205954858E+01  0.10000000000E-01 0. -1.
</event>
<event>
 7   0  0.6206631E-02  0.9118800E+02  0.7818608E-02  0.1180000E+00
       11   -1    0    0    0    0  0.00000000000E+00  0.00000000000E+00  0.11999999989E+02  0.12000000000E+02  0.51109989000E-03 0. -1.
     -623   -1    0    0    0    0  0.00000000000E+00  0.00000000000E+00  0.42561509872E-11  0.25126700000E+02  0.25126700000E+02 0. -1.
      622    2    1    2    0    0 -0.26598462534E-02 -0.12836699361E-01  0.93610330696E+01  0.93615813539E+01  0.10046621874E+00 0.  0.
       11    1    1    2    0    0 -0.22213924459E-03  0.80826452861E-02  0.26384055855E+01  0.26384180248E+01  0.51109989000E-03 0. -1.
     -623    1    1    2    0    0  0.28819854980E-02  0.47540540748E-02  0.56133402374E-03  0.25126700621E+02  0.25126700000E+02 0. -1.
     -611    1    3    3    0    0 -0.24346563684E-03 -0.26995097666E-01  0.90565258830E+01  0.90565716396E+01  0.10000000000E-01 0. -1.
      611    1    3    3    0    0 -0.24163806166E-02  0.14158398306E-01  0.30450718658E+00  0.30500971430E+00  0.10000000000E-01 0.  1.
</event>
<event>
 7   0  0.6206631E-02  0.9118800E+02  0.7818608E-02  0.1180000E+00
       11   -1    0    0    0    0  0.00000000000E+00  0.00000000000E+00  0.11999999989E+02  0.12000000000E+02  0.51109989000E-03 0. -1.
     -623   -1    0    0    0    0  0.00000000000E+00  0.00000000000E+00  0.42561509872E-11  0.25126700000E+02  0.25126700000E+02 0. -1.
      622    2    1    2    0    0 -0.16143864423E-01  0.90543731025E-02  0.11873029146E+02  0.11873440512E+02  0.97086925927E-01 0.  0.
       11    1    1    2    0    0  0.15524986368E-01  0.22744337681E-02  0.12557940332E+00  0.12655688844E+00  0.51109989000E-03 0. -1.
     -623    1    1    2    0    0  0.61887805455E-03 -0.11328806870E-01  0.13914397357E-02  0.25126702600E+02  0.25126700000E+02 0. -1.
     -611    1    3    3    0    0 -0.18050960447E-01 -0.16990588216E-01  0.10839972399E+02  0.10840005357E+02  0.10000000000E-01 0. -1.
      611    1    3    3    0    0  0.19070960242E-02  0.26044961319E-01  0.10330567467E+01  0.10334351547E+01  0.10000000000E-01 0.  1.
</event>
<event>
 7   0  0.6206631E-02  0.9118800E+02  0.7818608E-02  0.1180000E+00
       11   -1    0    0    0    0  0.00000000000E+00  0.00000000000E+00  0.11999999989E+02  0.12000000000E+02  0.51109989000E-03 0.  1.
     -623   -1    0    0    0    0  0.00000000000E+00  0.00000000000E+00  0.42561509872E-11  0.25126700000E+02  0.25126700000E+02 0.  1.
      622    2    1    2    0    0  0.79739233948E-01  0.11065497127E+00  0.10403058965E+02  0.10404535979E+02  0.11013735791E+00 0.  0.
       11    1    1    2    0    0  0.17265904905E-01 -0.11847354248E+00  0.15907757003E+01  0.15952747982E+01  0.51109989000E-03 0.  1.
     -623    1    1    2    0    0 -0.97005138853E-01  0.78185712067E-02  0.61653238805E-02  0.25126889223E+02  0.25126700000E+02 0.  1.
     -611    1    3    3    0    0 -0.25027204725E-01  0.40055875813E-01  0.26053915887E+01  0.26058388601E+01  0.10000000000E-01 0. -1.
      611    1    3    3    0    0  0.10476643867E+00  0.70599095458E-01  0.77976673762E+01  0.77986971187E+01  0.10000000000E-01 0.  1.
</event>
<event>
 7   0  0.6206631E-02  0.9118800E+02  0.7818608E-02  0.1180000E+00
       11   -1    0    0    0    0  0.00000000000E+00  0.00000000000E+00  0.11999999989E+02  0.12000000000E+02  0.51109989000E-03 0.  1.
     -623   -1    0    0    0    0  0.00000000000E+00  0.00000000000E+00  0.42561509872E-11  0.25126700000E+02  0.25126700000E+02 0.  1.
      622    2    1    2    0    0  0.10781556383E-01 -0.96554548587E-02  0.11782462916E+02  0.11782877096E+02  0.97728308007E-01 0.  0.
       11    1    1    2    0    0 -0.11568242705E-01  0.11927442217E-01  0.21648544243E+00  0.21712276741E+00  0.51109989000E-03 0.  1.
     -623    1    1    2    0    0  0.78668632154E-03 -0.22719873580E-02  0.10516311078E-02  0.25126700137E+02  0.25126700000E+02 0.  1.
     -611    1    3    3    0    0 -0.36734953528E-01  0.65663048087E-02  0.27778074459E+01  0.27780760932E+01  0.10000000000E-01 0. -1.
      611    1    3    3    0    0  0.47516509911E-01 -0.16221759667E-01  0.90046554697E+01  0.90048010024E+01  0.10000000000E-01 0.  1.
</event>
<event>
 6   0  0.6206631E-02  0.9118800E+02  0.7818608E-02  0.1180000E+00
       11   -1    0    0    0    0  0.00000000000E+00  0.00000000000E+00  0.11999999989E+02  0.12000000000E+02  0.51109989000E-03 0.  1.
     -623   -1    0    0    0    0  0.00000000000E+00  0.00000000000E+00  0.42561509872E-11  0.25126700000E+02  0.25126700000E+02 0. -1.
       11    1    1    2    0    0 -0.31538371822E-01 -0.31111342832E-01  0.83670016160E+00  0.83787230900E+00  0.51109989000E-03 0.  1.
     -623    1    1    2    0    0 -0.58168483929E-01  0.35976917561E-01  0.75539316838E-02  0.25126794222E+02  0.25126700000E+02 0. -1.
     -611    1    1    2    0    0  0.20069847056E+00  0.57881366432E-01  0.42872413269E+01  0.42923383282E+01  0.10000000000E-01 0. -1.
      611    1    1    2    0    0 -0.11099161481E+00 -0.62746941160E-01  0.68685045689E+01  0.68696951410E+01  0.10000000000E-01 0.  1.
</event>
<event>
 7   0  0.6206631E-02  0.9118800E+02  0.7818608E-02  0.1180000E+00
       11   -1    0    0    0    0  0.00000000000E+00  0.00000000000E+00  0.11999999989E+02  0.12000000000E+02  0.51109989000E-03 0.  1.
     -623   -1    0    0    0    0  0.00000000000E+00  0.00000000000E+00  0.42561509872E-11  0.25126700000E+02  0.25126700000E+02 0. -1.
      622    2    1    2    0    0 -0.49545390831E-02 -0.11217545509E-02  0.11965675089E+02  0.11965910777E+02  0.74930468417E-01 0.  0.
       11    1    1    2    0    0 -0.15319679154E-01 -0.57667963499E-02  0.29886731543E-01  0.34079707378E-01  0.51109989000E-03 0.  1.
     -623    1    1    2    0    0  0.20274218238E-01  0.68885509008E-02  0.44381683153E-02  0.25126709516E+02  0.25126700000E+02 0. -1.
     -611    1    3    3    0    0 -0.19782933625E-01  0.81889668127E-02  0.12886715783E+01  0.12888882265E+01  0.10000000000E-01 0. -1.
      611    1    3    3    0    0  0.14828394542E-01 -0.93107213635E-02  0.10677003511E+02  0.10677022551E+02  0.10000000000E-01 0.  1.
</event>
<event>
 7   0  0.6206631E-02  0.9118800E+02  0.7818608E-02  0.1180000E+00
       11   -1    0    0    0    0  0.00000000000E+00  0.00000000000E+00  0.11999999989E+02  0.12000000000E+02  0.51109989000E-03 0. -1.
     -623   -1    0    0    0    0  0.00000000000E+00  0.00000000000E+00  0.42561509872E-11  0.25126700000E+02  0.25126700000E+02 0.  1.
      622    2    1    2    0    0 -0.42422259235E-01  0.39596906685E-01  0.86979522421E+01  0.86988815900E+01  0.11313773603E+00 0.  0.
       11    1    1    2    0    0  0.22643322253E-01 -0.50382548896E-01  0.33006460636E+01  0.33011082714E+01  0.51109989000E-03 0. -1.
     -623    1    1    2    0    0  0.19778936983E-01  0.10785642211E-01  0.14016834480E-02  0.25126710139E+02  0.25126700000E+02 0.  1.
     -611    1    3    3    0    0 -0.13037301990E-01 -0.30777042641E-01  0.11298902204E+01  0.11304287274E+01  0.10000000000E-01 0.  1.
      611    1    3    3    0    0 -0.29384957245E-01  0.70373949326E-01  0.75680620217E+01  0.75684528626E+01  0.10000000000E-01 0. -1.
</event>
<event>
 7   0  0.6206631E-02  0.9118800E+02  0.7818608E-02  0.1180000E+00
       11   -1    0    0    0    0  0.00000000000E+00  0.00000000000E+00  0.11999999989E+02  0.12000000000E+02  0.51109989000E-03 0.  1.
     -623   -1    0    0    0    0  0.00000000000E+00  0.00000000000E+00  0.42561509872E-11  0.25126700000E+02  0.25126700000E+02 0. -1.
      622    2    1    2    0    0  0.12265143632E-01 -0.61358190401E-01  0.98613473528E+01  0.98619084615E+01  0.84567306099E-01 0.  0.
       11    1    1    2    0    0 -0.87067124403E-02  0.52991409334E-01  0.21374152860E+01  0.21380898630E+01  0.51109989000E-03 0.  1.
     -623    1    1    2    0    0 -0.35584311919E-02  0.83667810676E-02  0.12373502854E-02  0.25126701675E+02  0.25126700000E+02 0. -1.
     -611    1    3    3    0    0  0.36548330269E-01 -0.66111366089E-01  0.81071692459E+01  0.81075273466E+01  0.10000000000E-01 0.  1.
      611    1    3    3    0    0 -0.24283186637E-01  0.47531756881E-02  0.17541781068E+01  0.17543811149E+01  0.10000000000E-01 0. -1.
</event>
<event>
 7   0  0.6206631E-02  0.9118800E+02  0.7818608E-02  0.1180000E+00
       11   -1    0    0    0    0  0.00000000000E+00  0.00000000000E+00  0.11999999989E+02  0.12000000000E+02  0.51109989000E-03 0. -1.
     -623   -1    0    0    0    0  0.00000000000E+00  0.00000000000E+00  0.42561509872E-11  0.25126700000E+02  0.25126700000E+02 0. -1.
      622    2    1    2    0    0 -0.84023860114E-02  0.12581560106E-01  0.11583964889E+02  0.11584267548E+02  0.82360128104E-01 0.  0.
       11    1    1    2    0    0  0.12013552736E-01 -0.10459622597E-01  0.41542650927E+00  0.41573209520E+00  0.51109989000E-03 0. -1.
     -623    1    1    2    0    0 -0.36111667242E-02 -0.21219375096E-02  0.60859105118E-03  0.25126700356E+02  0.25126700000E+02 0. -1.
     -611    1    3    3    0    0  0.52239736406E-02 -0.17298495813E-01  0.94808918836E+01  0.94809143777E+01  0.10000000000E-01 0. -1.
      611    1    3    3    0    0 -0.13626359652E-01  0.29880055919E-01  0.21030730052E+01  0.21033531706E+01  0.10000000000E-01 0.  1.
</event>
<event>
 7   0  0.6206631E-02  0.9118800E+02  0.7818608E-02  0.1180000E+00
       11   -1    0    0    0    0  0.00000000000E+00  0.00000000000E+00  0.11999999989E+02  0.12000000000E+02  0.51109989000E-03 0.  1.
     -623   -1    0    0    0    0  0.00000000000E+00  0.00000000000E+00  0.42561509872E-11  0.25126700000E+02  0.25126700000E+02 0. -1.
      622    2    1    2    0    0 -0.26932833652E-01 -0.76750207739E-01  0.10946048524E+02  0.10946724275E+02  0.90432804432E-01 0.  0.
       11    1    1    2    0    0  0.10829691446E-01  0.90271249976E-01  0.10493349724E+01  0.10532665029E+01  0.51109989000E-03 0.  1.
     -623    1    1    2    0    0  0.16103142205E-01 -0.13521042237E-01  0.46164928453E-02  0.25126709222E+02  0.25126700000E+02 0. -1.
     -611    1    3    3    0    0  0.74195909678E-02 -0.19811052484E-01  0.74067391289E+01  0.74067760903E+01  0.10000000000E-01 0.  1.
      611    1    3    3    0    0 -0.34352424619E-01 -0.56939155254E-01  0.35393093950E+01  0.35399481846E+01  0.10000000000E-01 0.  1.
</event>
<event>
 7   0  0.6206631E-02  0.9118800E+02  0.7818608E-02  0.1180000E+00
       11   -1    0    0    0    0  0.00000000000E+00  0.00000000000E+00  0.11999999989E+02  0.12000000000E+02  0.51109989000E-03 0.  1.
     -623   -1    0    0    0    0  0.00000000000E+00  0.00000000000E+00  0.42561509872E-11  0.25126700000E+02  0.25126700000E+02 0. -1.
      622    2    1    2    0    0  0.43851859432E-03  0.34297359758E-02  0.11716025948E+02  0.11716404596E+02  0.94131240287E-01 0.  0.
       11    1    1    2    0    0  0.26803118436E-04  0.42574479041E-02  0.28356179959E+00  0.28359422065E+00  0.51109989000E-03 0.  1.
     -623    1    1    2    0    0 -0.46532171276E-03 -0.76871838799E-02  0.41224189587E-03  0.25126701184E+02  0.25126700000E+02 0. -1.
     -611    1    3    3    0    0  0.19010099417E-02  0.35489209048E-01  0.21316742503E+01  0.21319939510E+01  0.10000000000E-01 0. -1.
      611    1    3    3    0    0 -0.14624913474E-02 -0.32059473072E-01  0.95843516973E+01  0.95844106447E+01  0.10000000000E-01 0.  1.
</event>
<event>
 7   0  0.6206631E-02  0.9118800E+02  0.7818608E-02  0.1180000E+00
       11   -1    0    0    0    0  0.00000000000E+00  0.00000000000E+00  0.11999999989E+02  0.12000000000E+02  0.51109989000E-03 0. -1.
     -623   -1    0    0    0    0  0.00000000000E+00  0.00000000000E+00  0.42561509872E-11  0.25126700000E+02  0.25126700000E+02 0.  1.
      622    2    1    2    0    0 -0.11238225754E-01  0.68451275013E-02  0.96819019083E+01  0.96826155260E+01  0.11681484792E+00 0.  0.
       11    1    1    2    0    0  0.17965444651E-01 -0.92287472302E-02  0.23172953749E+01  0.23173834475E+01  0.51109989000E-03 0. -1.
     -623    1    1    2    0    0 -0.67272188967E-02  0.23836197289E-02  0.80270583320E-03  0.25126701026E+02  0.25126700000E+02 0.  1.
     -611    1    3    3    0    0 -0.18282369930E-01 -0.22819193532E-01  0.72739660452E+00  0.72805273223E+00  0.10000000000E-01 0.  1.
      611    1    3    3    0    0  0.70441441761E-02  0.29664321034E-01  0.89545053038E+01  0.89545627938E+01  0.10000000000E-01 0. -1.
</event>
<event>
 7   0  0.6206631E-02  0.9118800E+02  0.7818608E-02  0.1180000E+00
       11   -1    0    0    0    0  0.00000000000E+00  0.00000000000E+00  0.11999999989E+02  0.12000000000E+02  0.51109989000E-03 0.  1.
     -623   -1    0    0    0    0  0.00000000000E+00  0.00000000000E+00  0.42561509872E-11  0.25126700000E+02  0.25126700000E+02 0. -1.
      622    2    1    2    0    0  0.17494963107E-01  0.92587532262E-02  0.10954305087E+02  0.10954536002E+02  0.68317492622E-01 0.  0.
       11    1    1    2    0    0 -0.12782333152E-01 -0.10977392531E-01  0.10453275882E+01  0.10454634948E+01  0.51109989000E-03 0.  1.
     -623    1    1    2    0    0 -0.47126299555E-02  0.17186393051E-02  0.36731407745E-03  0.25126700503E+02  0.25126700000E+02 0. -1.
     -611    1    3    3    0    0  0.32248559173E-01 -0.17407111190E-01  0.68674017023E+01  0.68675067614E+01  0.10000000000E-01 0.  1.
      611    1    3    3    0    0 -0.14753596066E-01  0.26665864416E-01  0.40869033845E+01  0.40870292403E+01  0.10000000000E-01 0. -1.
</event>
<event>
 7   0  0.6206631E-02  0.9118800E+02  0.7818608E-02  0.1180000E+00
       11   -1    0    0    0    0  0.00000000000E+00  0.00000000000E+00  0.11999999989E+02  0.12000000000E+02  0.51109989000E-03 0. -1.
     -623   -1    0    0    0    0  0.00000000000E+00  0.00000000000E+00  0.42561509872E-11  0.25126700000E+02  0.25126700000E+02 0.  1.
      622    2    1    2    0    0  0.26085638543E-01 -0.19030725277E+00  0.87354954149E+01  0.87383183630E+01  0.11149151241E+00 0.  0.
       11    1    1    2    0    0 -0.16965491060E-01  0.18073051806E+00  0.32566216733E+01  0.32616769203E+01  0.51109989000E-03 0. -1.
     -623    1    1    2    0    0 -0.91201474828E-02  0.95767347068E-02  0.78829008532E-02  0.25126704717E+02  0.25126700000E+02 0.  1.
     -611    1    3    3    0    0  0.99300528143E-02 -0.18388620290E+00  0.61969049088E+01  0.61996486344E+01  0.10000000000E-01 0. -1.
      611    1    3    3    0    0  0.16155585729E-01 -0.64210498637E-02  0.25385905061E+01  0.25386697286E+01  0.10000000000E-01 0.  1.
</event>
<event>
 7   0  0.6206631E-02  0.9118800E+02  0.7818608E-02  0.1180000E+00
       11   -1    0    0    0    0  0.00000000000E+00  0.00000000000E+00  0.11999999989E+02  0.12000000000E+02  0.51109989000E-03 0. -1.
     -623   -1    0    0    0    0  0.00000000000E+00  0.00000000000E+00  0.42561509872E-11  0.25126700000E+02  0.25126700000E+02 0. -1.
      622    2    1    2    0    0  0.55012709339E-02 -0.26430185716E-02  0.11994179382E+02  0.11994896647E+02  0.13103159923E+00 0.  0.
       11    1    1    2    0    0 -0.29688690903E-02  0.17310588091E-02  0.37376309851E-02  0.51031222615E-02  0.51109989000E-03 0. -1.
     -623    1    1    2    0    0 -0.25324018436E-02  0.91195976247E-03  0.20829761032E-02  0.25126700231E+02  0.25126700000E+02 0. -1.
     -611    1    3    3    0    0  0.43291901258E-01 -0.22352387344E-01  0.10392642362E+02  0.10392761379E+02  0.10000000000E-01 0. -1.
      611    1    3    3    0    0 -0.37790630324E-01  0.19709368772E-01  0.16015370202E+01  0.16021352683E+01  0.10000000000E-01 0.  1.
</event>
<event>
 7   0  0.6206631E-02  0.9118800E+02  0.7818608E-02  0.1180000E+00
       11   -1    0    0    0    0  0.00000000000E+00  0.00000000000E+00  0.11999999989E+02  0.12000000000E+02  0.51109989000E-03 0.  1.
     -623   -1    0    0    0    0  0.00000000000E+00  0.00000000000E+00  0.42561509872E-11  0.25126700000E+02  0.25126700000E+02 0. -1.
      622    2    1    2    0    0  0.82758849088E-01 -0.22925924995E-02  0.10486454472E+02  0.10487049829E+02  0.75049590963E-01 0.  0.
       11    1    1    2    0    0 -0.89355621661E-01  0.72166505541E-02  0.15102902815E+01  0.15129486121E+01  0.51109989000E-03 0.  1.
     -623    1    1    2    0    0  0.65967725731E-02 -0.49240580546E-02  0.32552360758E-02  0.25126701559E+02  0.25126700000E+02 0. -1.
     -611    1    3    3    0    0  0.86869615765E-01 -0.95784166516E-02  0.67570597378E+01  0.67576323055E+01  0.10000000000E-01 0.  1.
      611    1    3    3    0    0 -0.41107666771E-02  0.72858241521E-02  0.37293947337E+01  0.37294175231E+01  0.10000000000E-01 0. -1.
</event>
<event>
 7   0  0.6206631E-02  0.9118800E+02  0.7818608E-02  0.1180000E+00
       11   -1    0    0    0    0  0.00000000000E+00  0.00000000000E+00  0.11999999989E+02  0.12000000000E+02  0.51109989000E-03 0. -1.
     -623   -1    0    0    0    0  0.00000000000E+00  0.00000000000E+00  0.42561509872E-11  0.25126700000E+02  0.25126700000E+02 0.  1.
      622    2    1    2    0    0 -0.20059490621E-01 -0.21448542458E-01  0.11460538635E+02  0.11461469576E+02  0.14309648444E+00 0.  0.
       11    1    1    2    0    0  0.10822389489E-01 -0.90774502778E-02  0.53832462774E+00  0.53851015800E+00  0.51109989000E-03 0. -1.
     -623    1    1    2    0    0  0.92371011325E-02  0.30525992736E-01  0.11367262661E-02  0.25126720266E+02  0.25126700000E+02 0.  1.
     -611    1    3    3    0    0 -0.21807998455E-01 -0.19612952790E-01  0.51799067143E+00  0.51891674901E+00  0.10000000000E-01 0.  1.
      611    1    3    3    0    0  0.17485078337E-02 -0.18355896686E-02  0.10942547964E+02  0.10942552827E+02  0.10000000000E-01 0. -1.
</event>
<event>
 7   0  0.6206631E-02  0.9118800E+02  0.7818608E-02  0.1180000E+00
       11   -1    0    0    0    0  0.00000000000E+00  0.00000000000E+00  0.11999999989E+02  0.12000000000E+02  0.51109989000E-03 0.  1.
     -623   -1    0    0    0    0  0.00000000000E+00  0.00000000000E+00  0.42561509872E-11  0.25126700000E+02  0.25126700000E+02 0. -1.
      622    2    1    2    0    0 -0.73470640396E-02  0.30526669732E-02  0.11950948792E+02  0.11951068729E+02  0.52947428942E-01 0.  0.
       11    1    1    2    0    0 -0.42577186544E-02  0.27516688146E-02  0.48661895382E-01  0.48927917743E-01  0.51109989000E-03 0.  1.
     -623    1    1    2    0    0  0.11604782694E-01 -0.58043357878E-02  0.38930141248E-03  0.25126703353E+02  0.25126700000E+02 0. -1.
     -611    1    3    3    0    0 -0.14931228075E-01  0.12984396797E-01  0.10628029287E+02  0.10628052411E+02  0.10000000000E-01 0.  1.
      611    1    3    3    0    0  0.75841640351E-02 -0.99317298240E-02  0.13229195054E+01  0.13230163175E+01  0.10000000000E-01 0. -1.
</event>
<event>
 7   0  0.6206631E-02  0.9118800E+02  0.7818608E-02  0.1180000E+00
       11   -1    0    0    0    0  0.00000000000E+00  0.00000000000E+00  0.11999999989E+02  0.12000000000E+02  0.51109989000E-03 0. -1.
     -623   -1    0    0    0    0  0.00000000000E+00  0.00000000000E+00  0.42561509872E-11  0.25126700000E+02  0.25126700000E+02 0. -1.
      622    2    1    2    0    0 -0.39756523151E-03 -0.93241651562E-02  0.11035769712E+02  0.11036162733E+02  0.92669470720E-01 0.  0.
       11    1    1    2    0    0 -0.71534614672E-02  0.31532775220E-02  0.96380353117E+00  0.96383537136E+00  0.51109989000E-03 0. -1.
     -623    1    1    2    0    0  0.75510266988E-02  0.61708876341E-02  0.42674611946E-03  0.25126701896E+02  0.25126700000E+02 0. -1.
     -611    1    3    3    0    0  0.40618583276E-01 -0.20268313512E-03  0.31919005519E+01  0.31921746574E+01  0.10000000000E-01 0.  1.
      611    1    3    3    0    0 -0.41016148508E-01 -0.91214820210E-02  0.78438691600E+01  0.78439880752E+01  0.10000000000E-01 0. -1.
</event>
<event>
 7   0  0.6206631E-02  0.9118800E+02  0.7818608E-02  0.1180000E+00
       11   -1    0    0    0    0  0.00000000000E+00  0.00000000000E+00  0.11999999989E+02  0.12000000000E+02  0.51109989000E-03 0. -1.
     -623   -1    0    0    0    0  0.00000000000E+00  0.00000000000E+00  0.42561509872E-11  0.25126700000E+02  0.25126700000E+02 0. -1.
      622    2    1    2    0    0  0.36579305635E-02 -0.40479696123E-02  0.11897464369E+02  0.11897659207E+02  0.67870623091E-01 0.  0.
       11    1    1    2    0    0 -0.34255319783E-02 -0.67840605321E-04  0.10228180896E+00  0.10234045406E+00  0.51109989000E-03 0. -1.
     -623    1    1    2    0    0 -0.23239858515E-03  0.41158102176E-02  0.25381141007E-03  0.25126700339E+02  0.25126700000E+02 0. -1.
     -611    1    3    3    0    0  0.14115810554E-01 -0.29376762868E-02  0.83058209223E+00  0.83076741509E+00  0.10000000000E-01 0.  1.
      611    1    3    3    0    0 -0.10457879991E-01 -0.11102933255E-02  0.11066882277E+02  0.11066891791E+02  0.10000000000E-01 0. -1.
</event>
<event>
 7   0  0.6206631E-02  0.9118800E+02  0.7818608E-02  0.1180000E+00
       11   -1    0    0    0    0  0.00000000000E+00  0.00000000000E+00  0.11999999989E+02  0.12000000000E+02  0.51109989000E-03 0.  1.
     -623   -1    0    0    0    0  0.00000000000E+00  0.00000000000E+00  0.42561509872E-11  0.25126700000E+02  0.25126700000E+02 0. -1.
      622    2    1    2    0    0  0.19812390166E-01 -0.20877498704E-01  0.11819106151E+02  0.11819576742E+02  0.10146801522E+00 0.  0.
       11    1    1    2    0    0 -0.18813218542E-01  0.18576601828E-01  0.17847458123E+00  0.18042301598E+00  0.51109989000E-03 0.  1.
     -623    1    1    2    0    0 -0.99917162432E-03  0.23008968756E-02  0.24192568669E-02  0.25126700242E+02  0.25126700000E+02 0. -1.
     -611    1    3    3    0    0  0.44468701663E-01 -0.43192789795E-01  0.51937476736E+01  0.51941272587E+01  0.10000000000E-01 0.  1.
      611    1    3    3    0    0 -0.24656311496E-01  0.22315291091E-01  0.66253584774E+01  0.66254494836E+01  0.10000000000E-01 0. -1.
</event>
<event>
 7   0  0.6206631E-02  0.9118800E+02  0.7818608E-02  0.1180000E+00
       11   -1    0    0    0    0  0.00000000000E+00  0.00000000000E+00  0.11999999989E+02  0.12000000000E+02  0.51109989000E-03 0.  1.
     -623   -1    0    0    0    0  0.00000000000E+00  0.00000000000E+00  0.42561509872E-11  0.25126700000E+02  0.25126700000E+02 0. -1.
      622    2    1    2    0    0 -0.36793484892E-01  0.37294567817E-01  0.35252159275E+01  0.35269469897E+01  0.97278400915E-01 0.  0.
       11    1    1    2    0    0  0.38575543509E-01 -0.37151541137E-01  0.84728835970E+01  0.84730528748E+01  0.51109989000E-03 0.  1.
     -623    1    1    2    0    0 -0.17820586170E-02 -0.14302668070E-03  0.19004645820E-02  0.25126700135E+02  0.25126700000E+02 0. -1.
     -611    1    3    3    0    0 -0.51032396918E-01 -0.65499305479E-02  0.10749673469E+01  0.10762443979E+01  0.10000000000E-01 0.  1.
      611    1    3    3    0    0  0.14238912025E-01  0.43844498365E-01  0.24502485806E+01  0.24507025918E+01  0.10000000000E-01 0. -1.
</event>
<event>
 7   0  0.6206631E-02  0.9118800E+02  0.7818608E-02  0.1180000E+00
       11   -1    0    0    0    0  0.00000000000E+00  0.00000000000E+00  0.11999999989E+02  0.12000000000E+02  0.51109989000E-03 0.  1.
     -623   -1    0    0    0    0  0.00000000000E+00  0.00000000000E+00  0.42561509872E-11  0.25126700000E+02  0.25126700000E+02 0. -1.
      622    2    1    2    0    0  0.11366205681E-01  0.26838847730E-03  0.11259788887E+02  0.11259918652E+02  0.52848805664E-01 0.  0.
       11    1    1    2    0    0 -0.42779734050E-02  0.75929368901E-02  0.74002762500E+00  0.74007911789E+00  0.51109989000E-03 0.  1.
     -623    1    1    2    0    0 -0.70882322762E-02 -0.78613253674E-02  0.18347676228E-03  0.25126702230E+02  0.25126700000E+02 0. -1.
     -611    1    3    3    0    0  0.78909302350E-02  0.68841746395E-02  0.85727202396E+00  0.85739429769E+00  0.10000000000E-01 0. -1.
      611    1    3    3    0    0  0.34752754463E-02 -0.66157861622E-02  0.10402516863E+02  0.10402524354E+02  0.10000000000E-01 0.  1.
</event>
<event>
 7   0  0.6206631E-02  0.9118800E+02  0.7818608E-02  0.1180000E+00
       11   -1    0    0    0    0  0.00000000000E+00  0.00000000000E+00  0.11999999989E+02  0.12000000000E+02  0.51109989000E-03 0.  1.
     -623   -1    0    0    0    0  0.00000000000E+00  0.00000000000E+00  0.42561509872E-11  0.25126700000E+02  0.25126700000E+02 0. -1.
      622    2    1    2    0    0 -0.94407583389E-02 -0.60016712951E-02  0.11578167153E+02  0.11578522944E+02  0.90076588262E-01 0.  0.
       11    1    1    2    0    0  0.88510896058E-02  0.69330553626E-02  0.42132673006E+00  0.42147702634E+00  0.51109989000E-03 0.  1.
     -623    1    1    2    0    0  0.58966873318E-03 -0.93138406756E-03  0.50610558047E-03  0.25126700029E+02  0.25126700000E+02 0. -1.
     -611    1    3    3    0    0 -0.31552242383E-01  0.14656237421E-02  0.10516604725E+02  0.10516656913E+02  0.10000000000E-01 0.  1.
      611    1    3    3    0    0  0.22111484044E-01 -0.74672950372E-02  0.10615624284E+01  0.10618660309E+01  0.10000000000E-01 0. -1.
</event>
<event>
 7   0  0.6206631E-02  0.9118800E+02  0.7818608E-02  0.1180000E+00
       11   -1    0    0    0    0  0.00000000000E+00  0.00000000000E+00  0.11999999989E+02  0.12000000000E+02  0.51109989000E-03 0. -1.
     -623   -1    0    0    0    0  0.00000000000E+00  0.00000000000E+00  0.42561509872E-11  0.25126700000E+02  0.25126700000E+02 0.  1.
      622    2    1    2    0    0  0.44350449251E-01  0.30307629440E-01  0.86561345686E+01  0.86568575713E+01  0.98141859123E-01 0.  0.
       11    1    1    2    0    0 -0.32890767789E-01 -0.45303515256E-01  0.33426664868E+01  0.33431353120E+01  0.51109989000E-03 0. -1.
     -623    1    1    2    0    0 -0.11459681462E-01  0.14995885816E-01  0.11989336657E-02  0.25126707117E+02  0.25126700000E+02 0.  1.
     -611    1    3    3    0    0 -0.97128120810E-02  0.50086317342E-01  0.33861399345E+01  0.33865390348E+01  0.10000000000E-01 0. -1.
      611    1    3    3    0    0  0.54063261332E-01 -0.19778687902E-01  0.52699946341E+01  0.52703185365E+01  0.10000000000E-01 0.  1.
</event>
<event>
 7   0  0.6206631E-02  0.9118800E+02  0.7818608E-02  0.1180000E+00
       11   -1    0    0    0    0  0.00000000000E+00  0.00000000000E+00  0.11999999989E+02  0.12000000000E+02  0.51109989000E-03 0. -1.
     -623   -1    0    0    0    0  0.00000000000E+00  0.00000000000E+00  0.42561509872E-11  0.25126700000E+02  0.25126700000E+02 0.  1.
      622    2    1    2    0    0  0.61389221383E-02 -0.17108747374E-02  0.11852133294E+02  0.11852485208E+02  0.91111861665E-01 0.  0.
       11    1    1    2    0    0 -0.76032104396E-02  0.11447168080E-02  0.14731332987E+00  0.14751473678E+00  0.51109989000E-03 0. -1.
     -623    1    1    2    0    0  0.14642883014E-02  0.56615792934E-03  0.55336506630E-03  0.25126700055E+02  0.25126700000E+02 0.  1.
     -611    1    3    3    0    0  0.23993595949E-01  0.23013485695E-01  0.20115520692E+01  0.20118516447E+01  0.10000000000E-01 0.  1.
      611    1    3    3    0    0 -0.17854673811E-01 -0.24724360433E-01  0.98405812249E+01  0.98406335633E+01  0.10000000000E-01 0. -1.
</event>
<event>
 7   0  0.6206631E-02  0.9118800E+02  0.7818608E-02  0.1180000E+00
       11   -1    0    0    0    0  0.00000000000E+00  0.00000000000E+00  0.11999999989E+02  0.12000000000E+02  0.51109989000E-03 0.  1.
     -623   -1    0    0    0    0  0.00000000000E+00  0.00000000000E+00  0.42561509872E-11  0.25126700000E+02  0.25126700000E+02 0.  1.
      622    2    1    2    0    0  0.21067575796E-01 -0.74840218692E-02  0.10788573404E+02  0.10789108265E+02  0.10507713055E+00 0.  0.
       11    1    1    2    0    0 -0.20933219443E-01  0.67275940144E-02  0.12106919584E+01  0.12108917126E+01  0.51109989000E-03 0.  1.
     -623    1    1    2    0    0 -0.13435635265E-03  0.75642785480E-03  0.73462659640E-03  0.25126700022E+02  0.25126700000E+02 0.  1.
     -611    1    3    3    0    0  0.63863365065E-02  0.45936528422E-01  0.63617529778E+01  0.63619298880E+01  0.10000000000E-01 0.  1.
      611    1    3    3    0    0  0.14681239290E-01 -0.53420550291E-01  0.44268204263E+01  0.44271783769E+01  0.10000000000E-01 0. -1.
</event>
<event>
 7   0  0.6206631E-02  0.9118800E+02  0.7818608E-02  0.1180000E+00
       11   -1    0    0    0    0  0.00000000000E+00  0.00000000000E+00  0.11999999989E+02  0.12000000000E+02  0.51109989000E-03 0.  1.
     -623   -1    0    0    0    0  0.00000000000E+00  0.00000000000E+00  0.42561509872E-11  0.25126700000E+02  0.25126700000E+02 0. -1.
      622    2    1    2    0    0  0.23142080013E-01 -0.32372201829E-01  0.90059749807E+01  0.90067229973E+01  0.10904256336E+00 0.  0.
       11    1    1    2    0    0 -0.21229639148E-01  0.15636585884E-01  0.29931551684E+01  0.29932713415E+01  0.51109989000E-03 0.  1.
     -623    1    1    2    0    0 -0.19124408647E-02  0.16735615945E-01  0.86983994427E-03  0.25126705661E+02  0.25126700000E+02 0. -1.
     -611    1    3    3    0    0 -0.15575214797E-01 -0.58261153972E-01  0.34313697367E+01  0.34319142209E+01  0.10000000000E-01 0. -1.
      611    1    3    3    0    0  0.38717294810E-01  0.25888952143E-01  0.55746052440E+01  0.55748087764E+01  0.10000000000E-01 0.  1.
</event>
<event>
 7   0  0.6206631E-02  0.9118800E+02  0.7818608E-02  0.1180000E+00
       11   -1    0    0    0    0  0.00000000000E+00  0.00000000000E+00  0.11999999989E+02  0.12000000000E+02  0.51109989000E-03 0. -1.
     -623   -1    0    0    0    0  0.00000000000E+00  0.00000000000E+00  0.42561509872E-11  0.25126700000E+02  0.25126700000E+02 0. -1.
      622    2    1    2    0    0 -0.41485228433E-02  0.76572808120E-02  0.11908827299E+02  0.11909527414E+02  0.12883999398E+00 0.  0.
       11    1    1    2    0    0 -0.32667218072E-02 -0.68813858223E-03  0.90407453269E-01  0.90470513627E-01  0.51109989000E-03 0. -1.
     -623    1    1    2    0    0  0.74152446505E-02 -0.69691422298E-02  0.76523681730E-03  0.25126702072E+02  0.25126700000E+02 0. -1.
     -611    1    3    3    0    0  0.49452021408E-01  0.35462418976E-01  0.41433412650E+01  0.41438001790E+01  0.10000000000E-01 0.  1.
      611    1    3    3    0    0 -0.53600544252E-01 -0.27805138164E-01  0.77654860341E+01  0.77657272350E+01  0.10000000000E-01 0. -1.
</event>
<event>
 7   0  0.6206631E-02  0.9118800E+02  0.7818608E-02  0.1180000E+00
       11   -1    0    0    0    0  0.00000000000E+00  0.00000000000E+00  0.11999999989E+02  0.12000000000E+02  0.51109989000E-03 0. -1.
     -623   -1    0    0    0    0  0.00000000000E+00  0.00000000000E+00  0.42561509872E-11  0.25126700000E+02  0.25126700000E+02 0.  1.
      622    2    1    2    0    0  0.42492101701E-03  0.74156376739E-02  0.11538328925E+02  0.11538702585E+02  0.92562345018E-01 0.  0.
       11    1    1    2    0    0  0.11908697161E-02 -0.10057500924E-01  0.46118574600E+00  0.46129721984E+00  0.51109989000E-03 0. -1.
     -623    1    1    2    0    0 -0.16157907331E-02  0.26418632503E-02  0.48531832659E-03  0.25126700196E+02  0.25126700000E+02 0.  1.
     -611    1    3    3    0    0  0.28698765948E-01  0.96923759701E-02  0.10140293572E+02  0.10140343746E+02  0.10000000000E-01 0. -1.
      611    1    3    3    0    0 -0.28273844931E-01 -0.22767382962E-02  0.13980353524E+01  0.13983588382E+01  0.10000000000E-01 0.  1.
</event>
<event>
 7   0  0.6206631E-02  0.9118800E+02  0.7818608E-02  0.1180000E+00
       11   -1    0    0    0    0  0.00000000000E+00  0.00000000000E+00  0.11999999989E+02  0.12000000000E+02  0.51109989000E-03 0.  1.
     -623   -1    0    0    0    0  0.00000000000E+00  0.00000000000E+00  0.42561509872E-11  0.25126700000E+02  0.25126700000E+02 0.  1.
      622    2    1    2    0    0 -0.41529169096E-04  0.11405941461E-02  0.11994792859E+02  0.11995109850E+02  0.87196758339E-01 0.  0.
       11    1    1    2    0    0  0.19053880399E-03 -0.14762532138E-03  0.48573683122E-02  0.48901276402E-02  0.51109989000E-03 0.  1.
     -623    1    1    2    0    0 -0.14900963490E-03 -0.99296882467E-03  0.34976169825E-03  0.25126700022E+02  0.25126700000E+02 0.  1.
     -611    1    3    3    0    0  0.36435401455E-01 -0.23017830860E-02  0.89512701419E+01  0.89513501769E+01  0.10000000000E-01 0.  1.
      611    1    3    3    0    0 -0.36476930624E-01  0.34423772320E-02  0.30435227172E+01  0.30437596729E+01  0.10000000000E-01 0. -1.
</event>
<event>
 7   0  0.6206631E-02  0.9118800E+02  0.7818608E-02  0.1180000E+00
       11   -1    0    0    0    0  0.00000000000E+00  0.00000000000E+00  0.11999999989E+02  0.12000000000E+02  0.51109989000E-03 0.  1.
     -623   -1    0    0    0    0  0.00000000000E+00  0.00000000000E+00  0.42561509872E-11  0.25126700000E+02  0.25126700000E+02 0. -1.
      622    2    1    2    0    0 -0.28645030794E-02  0.17915846203E-01  0.11877327372E+02  0.11877948321E+02  0.12009002222E+00 0.  0.
       11    1    1    2    0    0  0.15201777237E-01 -0.12415643542E-01  0.12045828687E+00  0.12204795097E+00  0.51109989000E-03 0.  1.
     -623    1    1    2    0    0 -0.12337274158E-01 -0.55002026610E-02  0.22143298232E-02  0.25126703728E+02  0.25126700000E+02 0. -1.
     -611    1    3    3    0    0  0.16445126856E-01  0.44164190434E-01  0.10745077579E+02  0.10745185578E+02  0.10000000000E-01 0.  1.
      611    1    3    3    0    0 -0.19309629936E-01 -0.26248344231E-01  0.11322497929E+01  0.11327627426E+01  0.10000000000E-01 0. -1.
</event>
<event>
 7   0  0.6206631E-02  0.9118800E+02  0.7818608E-02  0.1180000E+00
       11   -1    0    0    0    0  0.00000000000E+00  0.00000000000E+00  0.11999999989E+02  0.12000000000E+02  0.51109989000E-03 0.  1.
     -623   -1    0    0    0    0  0.00000000000E+00  0.00000000000E+00  0.42561509872E-11  0.25126700000E+02  0.25126700000E+02 0.  1.
      622    2    1    2    0    0  0.23971182665E-02  0.54414496976E-03  0.11909016230E+02  0.11909914824E+02  0.14627886696E+00 0.  0.
       11    1    1    2    0    0 -0.13583647247E-02 -0.50267065864E-03  0.90072043554E-01  0.90085137984E-01  0.51109989000E-03 0.  1.
     -623    1    1    2    0    0 -0.10387535418E-02 -0.41474311115E-04  0.91171562393E-03  0.25126700038E+02  0.25126700000E+02 0.  1.
     -611    1    3    3    0    0 -0.34039960981E-01 -0.43130280247E-01  0.96465540372E+01  0.96467156967E+01  0.10000000000E-01 0.  1.
      611    1    3    3    0    0  0.36437079247E-01  0.43674425217E-01  0.22624621927E+01  0.22631991273E+01  0.10000000000E-01 0. -1.
</event>
<event>
 7   0  0.6206631E-02  0.9118800E+02  0.7818608E-02  0.1180000E+00
       11   -1    0    0    0    0  0.00000000000E+00  0.00000000000E+00  0.11999999989E+02  0.12000000000E+02  0.51109989000E-03 0. -1.
     -623   -1    0    0    0    0  0.00000000000E+00  0.00000000000E+00  0.42561509872E-11  0.25126700000E+02  0.25126700000E+02 0. -1.
      622    2    1    2    0    0  0.28695591702E-03 -0.52224907068E-02  0.11838088651E+02  0.11838398851E+02  0.85539908303E-01 0.  0.
       11    1    1    2    0    0 -0.64880874536E-03 -0.29737427917E-02  0.16157033306E+00  0.16159980770E+00  0.51109989000E-03 0. -1.
     -623    1    1    2    0    0  0.36185282833E-03  0.81962334984E-02  0.34100488393E-03  0.25126701342E+02  0.25126700000E+02 0. -1.
     -611    1    3    3    0    0  0.61271962385E-03  0.18532762828E-01  0.79207702250E+00  0.79235714694E+00  0.10000000000E-01 0. -1.
      611    1    3    3    0    0 -0.32576370683E-03 -0.23755253535E-01  0.11046011629E+02  0.11046041704E+02  0.10000000000E-01 0. -1.
</event>
<event>
 7   0  0.6206631E-02  0.9118800E+02  0.7818608E-02  0.1180000E+00
       11   -1    0    0    0    0  0.00000000000E+00  0.00000000000E+00  0.11999999989E+02  0.12000000000E+02  0.51109989000E-03 0. -1.
     -623   -1    0    0    0    0  0.00000000000E+00  0.00000000000E+00  0.42561509872E-11  0.25126700000E+02  0.25126700000E+02 0.  1.
      622    2    1    2    0    0  0.15740547933E-02  0.12852897830E-02  0.11925588673E+02  0.11926069067E+02  0.10702367657E+00 0.  0.
       11    1    1    2    0    0 -0.31593105866E-03 -0.16629520706E-02  0.73909745882E-01  0.73930893282E-01  0.51109989000E-03 0. -1.
     -623    1    1    2    0    0 -0.12581237346E-02  0.37766228764E-03  0.50157001718E-03  0.25126700039E+02  0.25126700000E+02 0.  1.
     -611    1    3    3    0    0  0.21012136584E-01  0.16012434970E-01  0.11144508510E+02  0.11144544308E+02  0.10000000000E-01 0. -1.
      611    1    3    3    0    0 -0.19438081791E-01 -0.14727145187E-01  0.78108016364E+00  0.78152475959E+00  0.10000000000E-01 0.  1.
</event>
<event>
 7   0  0.6206631E-02  0.9118800E+02  0.7818608E-02  0.1180000E+00
       11   -1    0    0    0    0  0.00000000000E+00  0.00000000000E+00  0.11999999989E+02  0.12000000000E+02  0.51109989000E-03 0. -1.
     -623   -1    0    0    0    0  0.00000000000E+00  0.00000000000E+00  0.42561509872E-11  0.25126700000E+02  0.25126700000E+02 0.  1.
      622    2    1    2    0    0  0.75551380921E-02 -0.31857349586E-02  0.99654686700E+01  0.99660027650E+01  0.10284974069E+00 0.  0.
       11    1    1    2    0    0 -0.58996359784E-02  0.75741008832E-02  0.20339740687E+01  0.20339967911E+01  0.51109989000E-03 0. -1.
     -623    1    1    2    0    0 -0.16555021137E-02 -0.43883659246E-02  0.55725036481E-03  0.25126700444E+02  0.25126700000E+02 0.  1.
     -611    1    3    3    0    0  0.18435483084E-01 -0.34895883213E-01  0.18050120470E+01  0.18054711517E+01  0.10000000000E-01 0.  1.
      611    1    3    3    0    0 -0.10880344991E-01  0.31710148255E-01  0.81604566230E+01  0.81605316133E+01  0.10000000000E-01 0. -1.
</event>
<event>
 7   0  0.6206631E-02  0.9118800E+02  0.7818608E-02  0.1180000E+00
       11   -1    0    0    0    0  0.00000000000E+00  0.00000000000E+00  0.11999999989E+02  0.12000000000E+02  0.51109989000E-03 0. -1.
     -623   -1    0    0    0    0  0.00000000000E+00  0.00000000000E+00  0.42561509872E-11  0.25126700000E+02  0.25126700000E+02 0.  1.
      622    2    1    2    0    0  0.13770693794E-02 -0.29651718497E-02  0.11971957222E+02  0.11972409923E+02  0.10406217254E+00 0.  0.
       11    1    1    2    0    0 -0.15617583515E-02  0.22077753812E-03  0.27540056892E-01  0.27589921867E-01  0.51109989000E-03 0. -1.
     -623    1    1    2    0    0  0.18468897210E-03  0.27443943116E-02  0.50271006589E-03  0.25126700156E+02  0.25126700000E+02 0.  1.
     -611    1    3    3    0    0  0.11864540542E-01  0.12050651745E-01  0.44465948371E+00  0.44509329582E+00  0.10000000000E-01 0.  1.
      611    1    3    3    0    0 -0.10487471163E-01 -0.15015823595E-01  0.11527297738E+02  0.11527316627E+02  0.10000000000E-01 0. -1.
</event>
<event>
 7   0  0.6206631E-02  0.9118800E+02  0.7818608E-02  0.1180000E+00
       11   -1    0    0    0    0  0.00000000000E+00  0.00000000000E+00  0.11999999989E+02  0.12000000000E+02  0.51109989000E-03 0.  1.
     -623   -1    0    0    0    0  0.00000000000E+00  0.00000000000E+00  0.42561509872E-11  0.25126700000E+02  0.25126700000E+02 0. -1.
      622    2    1    2    0    0  0.10236523682E-02  0.42351240906E-03  0.11969886629E+02  0.11970321625E+02  0.10204241976E+00 0.  0.
       11    1    1    2    0    0 -0.48395175128E-04 -0.53903521108E-03  0.29669015366E-01  0.29678352329E-01  0.51109989000E-03 0.  1.
     -623    1    1    2    0    0 -0.97525719311E-03  0.11552280201E-03  0.44434469534E-03  0.25126700023E+02  0.25126700000E+02 0. -1.
     -611    1    3    3    0    0 -0.15442115490E-01 -0.33256659142E-01  0.98905273574E+01  0.98906003798E+01  0.10000000000E-01 0.  1.
      611    1    3    3    0    0  0.16465767858E-01  0.33680171551E-01  0.20793592716E+01  0.20797212448E+01  0.10000000000E-01 0. -1.
</event>
<event>
 7   0  0.6206631E-02  0.9118800E+02  0.7818608E-02  0.1180000E+00
       11   -1    0    0    0    0  0.00000000000E+00  0.00000000000E+00  0.11999999989E+02  0.12000000000E+02  0.51109989000E-03 0. -1.
     -623   -1    0    0    0    0  0.00000000000E+00  0.00000000000E+00  0.42561509872E-11  0.25126700000E+02  0.25126700000E+02 0. -1.
      622    2    1    2    0    0 -0.78223791806E-03  0.63809239506E-02  0.11977747557E+02  0.11978059552E+02  0.86213431477E-01 0.  0.
       11    1    1    2    0    0 -0.59305813778E-03 -0.89451908690E-02  0.20018545001E-01  0.21940180600E-01  0.51109989000E-03 0. -1.
     -623    1    1    2    0    0  0.13752960558E-02  0.25642669184E-02  0.22338871633E-02  0.25126700268E+02  0.25126700000E+02 0. -1.
     -611    1    3    3    0    0 -0.22206511656E-01 -0.28890885936E-01  0.34636815981E+01  0.34638877039E+01  0.10000000000E-01 0.  1.
      611    1    3    3    0    0  0.21424273738E-01  0.35271809887E-01  0.85140659589E+01  0.85141718477E+01  0.10000000000E-01 0. -1.
</event>
<event>
 7   0  0.6206631E-02  0.9118800E+02  0.7818608E-02  0.1180000E+00
       11   -1    0    0    0    0  0.00000000000E+00  0.00000000000E+00  0.11999999989E+02  0.12000000000E+02  0.51109989000E-03 0.  1.
     -623   -1    0    0    0    0  0.00000000000E+00  0.00000000000E+00  0.42561509872E-11  0.25126700000E+02  0.25126700000E+02 0.  1.
      622    2    1    2    0    0  0.17917518354E-01  0.40373052910E-02  0.10843877159E+02  0.10844421799E+02  0.10712128786E+00 0.  0.
       11    1    1    2    0    0 -0.11304291138E-01 -0.13909850722E-01  0.11554362517E+01  0.11555753822E+01  0.51109989000E-03 0.  1.
     -623    1    1    2    0    0 -0.66132272165E-02  0.98725454308E-02  0.68657843573E-03  0.25126702819E+02  0.25126700000E+02 0.  1.
     -611    1    3    3    0    0  0.16838464578E-01  0.40470632063E-01  0.92013144654E+01  0.92014243081E+01  0.10000000000E-01 0.  1.
      611    1    3    3    0    0  0.10790537767E-02 -0.36433326772E-01  0.16425626936E+01  0.16429974906E+01  0.10000000000E-01 0. -1.
</event>
<event>
 7   0  0.6206631E-02  0.9118800E+02  0.7818608E-02  0.1180000E+00
       11   -1    0    0    0    0  0.00000000000E+00  0.00000000000E+00  0.11999999989E+02  0.12000000000E+02  0.51109989000E-03 0.  1.
     -623   -1    0    0    0    0  0.00000000000E+00  0.00000000000E+00  0.42561509872E-11  0.25126700000E+02  0.25126700000E+02 0.  1.
      622    2    1    2    0    0 -0.33382785683E-02  0.10940357922E-01  0.81788355603E+01  0.81789881465E+01  0.48632742290E-01 0.  0.
       11    1    1    2    0    0 -0.64888588197E-02 -0.14379761667E-01  0.38209770936E+01  0.38210096956E+01  0.51109989000E-03 0.  1.
     -623    1    1    2    0    0  0.98271373881E-02  0.34394037447E-02  0.18733519011E-03  0.25126702158E+02  0.25126700000E+02 0.  1.
     -611    1    3    3    0    0 -0.85959666466E-02 -0.12236732133E-01  0.15834775075E+01  0.15835796933E+01  0.10000000000E-01 0.  1.
      611    1    3    3    0    0  0.52576880783E-02  0.23177090056E-01  0.65953580527E+01  0.65954084532E+01  0.10000000000E-01 0. -1.
</event>
<event>
 7   0  0.6206631E-02  0.9118800E+02  0.7818608E-02  0.1180000E+00
       11   -1    0    0    0    0  0.00000000000E+00  0.00000000000E+00  0.11999999989E+02  0.12000000000E+02  0.51109989000E-03 0. -1.
     -623   -1    0    0    0    0  0.00000000000E+00  0.00000000000E+00  0.42561509872E-11  0.25126700000E+02  0.25126700000E+02 0. -1.
      622    2    1    2    0    0 -0.42408063022E-02 -0.47725224663E-02  0.11972422342E+02  0.11972771431E+02  0.91204493396E-01 0.  0.
       11    1    1    2    0    0 -0.19557572845E-02  0.12490822306E-01  0.24107444578E-01  0.27226379407E-01  0.51109989000E-03 0. -1.
     -623    1    1    2    0    0  0.61965635867E-02 -0.77182998393E-02  0.34702028135E-02  0.25126702189E+02  0.25126700000E+02 0. -1.
     -611    1    3    3    0    0 -0.43343627900E-01 -0.14850516440E-01  0.78230367562E+01  0.78231773146E+01  0.10000000000E-01 0. -1.
      611    1    3    3    0    0  0.39102821598E-01  0.10077993974E-01  0.41493855856E+01  0.41495941169E+01  0.10000000000E-01 0.  1.
</event>
<event>
 7   0  0.6206631E-02  0.9118800E+02  0.7818608E-02  0.1180000E+00
       11   -1    0    0    0    0  0.00000000000E+00  0.00000000000E+00  0.11999999989E+02  0.12000000000E+02  0.51109989000E-03 0.  1.
     -623   -1    0    0    0    0  0.00000000000E+00  0.00000000000E+00  0.42561509872E-11  0.25126700000E+02  0.25126700000E+02 0.  1.
      622    2    1    2    0    0 -0.19392949667E-02 -0.29659916492E-02  0.11968444957E+02  0.11968875889E+02  0.10150267428E+00 0.  0.
       11    1    1    2    0    0  0.19108818427E-02  0.21856561470E-03  0.31060267133E-01  0.31123956334E-01  0.51109989000E-03 0.  1.
     -623    1    1    2    0    0  0.28413123989E-04  0.27474260345E-02  0.49476513440E-03  0.25126700155E+02  0.25126700000E+02 0.  1.
     -611    1    3    3    0    0  0.42664493295E-01  0.19451500133E-01  0.44417580602E+01  0.44420168038E+01  0.10000000000E-01 0.  1.
      611    1    3    3    0    0 -0.44603788262E-01 -0.22417491783E-01  0.75266868966E+01  0.75268590847E+01  0.10000000000E-01 0. -1.
</event>
<event>
 7   0  0.6206631E-02  0.9118800E+02  0.7818608E-02  0.1180000E+00
       11   -1    0    0    0    0  0.00000000000E+00  0.00000000000E+00  0.11999999989E+02  0.12000000000E+02  0.51109989000E-03 0. -1.
     -623   -1    0    0    0    0  0.00000000000E+00  0.00000000000E+00  0.42561509872E-11  0.25126700000E+02  0.25126700000E+02 0. -1.
      622    2    1    2    0    0 -0.23714224927E-01  0.29352663991E-01  0.11469288178E+02  0.11470169144E+02  0.13705818050E+00 0.  0.
       11    1    1    2    0    0  0.20269103206E-01 -0.31416392026E-01  0.52850941931E+00  0.52983043868E+00  0.51109989000E-03 0. -1.
     -623    1    1    2    0    0  0.34451217210E-02  0.20637280346E-02  0.22023922165E-02  0.25126700417E+02  0.25126700000E+02 0. -1.
     -611    1    3    3    0    0 -0.33624950891E-01 -0.12306193046E-01  0.87466152667E+00  0.87545123562E+00  0.10000000000E-01 0.  1.
      611    1    3    3    0    0  0.99107259638E-02  0.41658857037E-01  0.10594626651E+02  0.10594717908E+02  0.10000000000E-01 0. -1.
</event>
<event>
 7   0  0.6206631E-02  0.9118800E+02  0.7818608E-02  0.1180000E+00
       11   -1    0    0    0    0  0.00000000000E+00  0.00000000000E+00  0.11999999989E+02  0.12000000000E+02  0.51109989000E-03 0. -1.
     -623   -1    0    0    0    0  0.00000000000E+00  0.00000000000E+00  0.42561509872E-11  0.25126700000E+02  0.25126700000E+02 0. -1.
      622    2    1    2    0    0 -0.33279021576E-01  0.24260608176E+00  0.73516319244E+01  0.73562481074E+01  0.89045275402E-01 0.  0.
       11    1    1    2    0    0  0.55115119501E-01 -0.19739726582E+00  0.46391752022E+01  0.46437000522E+01  0.51109989000E-03 0. -1.
     -623    1    1    2    0    0 -0.21836097925E-01 -0.45208815939E-01  0.91928625310E-02  0.25126751840E+02  0.25126700000E+02 0. -1.
     -611    1    3    3    0    0 -0.64397589173E-02  0.22296977493E+00  0.59553904120E+01  0.59595748129E+01  0.10000000000E-01 0. -1.
      611    1    3    3    0    0 -0.26839262658E-01  0.19636306830E-01  0.13962415124E+01  0.13966732945E+01  0.10000000000E-01 0.  1.
</event>
<event>
 7   0  0.6206631E-02  0.9118800E+02  0.7818608E-02  0.1180000E+00
       11   -1    0    0    0    0  0.00000000000E+00  0.00000000000E+00  0.11999999989E+02  0.12000000000E+02  0.51109989000E-03 0. -1.
     -623   -1    0    0    0    0  0.00000000000E+00  0.00000000000E+00  0.42561509872E-11  0.25126700000E+02  0.25126700000E+02 0. -1.
      622    2    1    2    0    0 -0.15850185084E-03  0.55461128610E-02  0.11269258963E+02  0.11269494594E+02  0.72663901891E-01 0.  0.
       11    1    1    2    0    0  0.60452710765E-03 -0.49784714495E-02  0.73048800046E+00  0.73050539400E+00  0.51109989000E-03 0. -1.
     -623    1    1    2    0    0 -0.44602525680E-03 -0.56764141154E-03  0.25302522456E-03  0.25126700012E+02  0.25126700000E+02 0. -1.
     -611    1    3    3    0    0 -0.17466764075E-01  0.78215345953E-02  0.10803657729E+01  0.10805815414E+01  0.10000000000E-01 0.  1.
      611    1    3    3    0    0  0.17308262224E-01 -0.22754217343E-02  0.10188893190E+02  0.10188913053E+02  0.10000000000E-01 0. -1.
</event>
<event>
 7   0  0.6206631E-02  0.9118800E+02  0.7818608E-02  0.1180000E+00
       11   -1    0    0    0    0  0.00000000000E+00  0.00000000000E+00  0.11999999989E+02  0.12000000000E+02  0.51109989000E-03 0. -1.
     -623   -1    0    0    0    0  0.00000000000E+00  0.00000000000E+00  0.42561509872E-11  0.25126700000E+02  0.25126700000E+02 0.  1.
      622    2    1    2    0    0 -0.89542108319E-02 -0.37923937778E-02  0.11797081423E+02  0.11797397488E+02  0.85806982659E-01 0.  0.
       11    1    1    2    0    0  0.87497514464E-02  0.26184472882E-02  0.20239587068E+00  0.20260247804E+00  0.51109989000E-03 0. -1.
     -623    1    1    2    0    0  0.20445938548E-03  0.11739464896E-02  0.52269557268E-03  0.25126700034E+02  0.25126700000E+02 0.  1.
     -611    1    3    3    0    0  0.21051084551E-01  0.88918117966E-02  0.97540714714E+01  0.97541033663E+01  0.10000000000E-01 0. -1.
      611    1    3    3    0    0 -0.30005295382E-01 -0.12684205574E-01  0.20430099515E+01  0.20432941219E+01  0.10000000000E-01 0.  1.
</event>
<event>
 7   0  0.6206631E-02  0.9118800E+02  0.7818608E-02  0.1180000E+00
       11   -1    0    0    0    0  0.00000000000E+00  0.00000000000E+00  0.11999999989E+02  0.12000000000E+02  0.51109989000E-03 0.  1.
     -623   -1    0    0    0    0  0.00000000000E+00  0.00000000000E+00  0.42561509872E-11  0.25126700000E+02  0.25126700000E+02 0. -1.
      622    2    1    2    0    0 -0.42419490730E-01  0.43266603413E-02  0.82073045080E+01  0.82081649696E+01  0.11093578210E+00 0.  0.
       11    1    1    2    0    0 -0.25605293450E-01  0.79118917354E-02  0.37916452020E+01  0.37917399474E+01  0.51109989000E-03 0.  1.
     -623    1    1    2    0    0  0.68024784180E-01 -0.12238552077E-01  0.10502791033E-02  0.25126795083E+02  0.25126700000E+02 0. -1.
     -611    1    3    3    0    0 -0.30987324035E-01 -0.40711775834E-01  0.64711015787E+01  0.64713115599E+01  0.10000000000E-01 0.  1.
      611    1    3    3    0    0 -0.11432166694E-01  0.45038436176E-01  0.17362029292E+01  0.17368534097E+01  0.10000000000E-01 0. -1.
</event>
<event>
 7   0  0.6206631E-02  0.9118800E+02  0.7818608E-02  0.1180000E+00
       11   -1    0    0    0    0  0.00000000000E+00  0.00000000000E+00  0.11999999989E+02  0.12000000000E+02  0.51109989000E-03 0. -1.
     -623   -1    0    0    0    0  0.00000000000E+00  0.00000000000E+00  0.42561509872E-11  0.25126700000E+02  0.25126700000E+02 0.  1.
      622    2    1    2    0    0 -0.51640586429E-02 -0.33389736075E-02  0.11903066703E+02  0.11903410667E+02  0.90281512691E-01 0.  0.
       11    1    1    2    0    0  0.28095291327E-02 -0.48359841778E-02  0.96424471124E-01  0.96587887707E-01  0.51109989000E-03 0. -1.
     -623    1    1    2    0    0  0.23545295102E-02  0.81749577853E-02  0.50881488726E-03  0.25126701445E+02  0.25126700000E+02 0.  1.
     -611    1    3    3    0    0 -0.35623805834E-02  0.36850518980E-01  0.85772218693E+01  0.85773075989E+01  0.10000000000E-01 0. -1.
      611    1    3    3    0    0 -0.16016780595E-02 -0.40189492588E-01  0.33258448338E+01  0.33261030680E+01  0.10000000000E-01 0.  1.
</event>
<event>
 7   0  0.6206631E-02  0.9118800E+02  0.7818608E-02  0.1180000E+00
       11   -1    0    0    0    0  0.00000000000E+00  0.00000000000E+00  0.11999999989E+02  0.12000000000E+02  0.51109989000E-03 0.  1.
     -623   -1    0    0    0    0  0.00000000000E+00  0.00000000000E+00  0.42561509872E-11  0.25126700000E+02  0.25126700000E+02 0. -1.
      622    2    1    2    0    0  0.14432269274E+00  0.79262489763E-01  0.72594197813E+01  0.72619478666E+01  0.97977923861E-01 0.  0.
       11    1    1    2    0    0 -0.12918794259E+00 -0.75269855454E-01  0.47356870640E+01  0.47380467816E+01  0.51109989000E-03 0.  1.
     -623    1    1    2    0    0 -0.15134750150E-01 -0.39926343097E-02  0.48931437884E-02  0.25126705352E+02  0.25126700000E+02 0. -1.
     -611    1    3    3    0    0  0.80599459377E-01  0.44197974930E-02  0.20868229795E+01  0.20884075165E+01  0.10000000000E-01 0.  1.
      611    1    3    3    0    0  0.63723233361E-01  0.74842692270E-01  0.51725968019E+01  0.51735403501E+01  0.10000000000E-01 0. -1.
</event>
<event>
 7   0  0.6206631E-02  0.9118800E+02  0.7818608E-02  0.1180000E+00
       11   -1    0    0    0    0  0.00000000000E+00  0.00000000000E+00  0.11999999989E+02  0.12000000000E+02  0.51109989000E-03 0. -1.
     -623   -1    0    0    0    0  0.00000000000E+00  0.00000000000E+00  0.42561509872E-11  0.25126700000E+02  0.25126700000E+02 0.  1.
      622    2    1    2    0    0  0.32919428998E-02 -0.58890683783E-01  0.62983316437E+01  0.62996359306E+01  0.11380867027E+00 0.  0.
       11    1    1    2    0    0 -0.49471122638E-01  0.96222797319E-01  0.56992668625E+01  0.57002937863E+01  0.51109989000E-03 0. -1.
     -623    1    1    2    0    0  0.46179179738E-01 -0.37332113535E-01  0.24014828276E-02  0.25126770283E+02  0.25126700000E+02 0.  1.
     -611    1    3    3    0    0  0.67677420052E-02 -0.67968099291E-01  0.61930443165E+01  0.61934290479E+01  0.10000000000E-01 0. -1.
      611    1    3    3    0    0 -0.34757991055E-02  0.90774155075E-02  0.10528732723E+00  0.10620688268E+00  0.10000000000E-01 0.  1.
</event>
<event>
 7   0  0.6206631E-02  0.9118800E+02  0.7818608E-02  0.1180000E+00
       11   -1    0    0    0    0  0.00000000000E+00  0.00000000000E+00  0.11999999989E+02  0.12000000000E+02  0.51109989000E-03 0. -1.
     -623   -1    0    0    0    0  0.00000000000E+00  0.00000000000E+00  0.42561509872E-11  0.25126700000E+02  0.25126700000E+02 0.  1.
      622    2    1    2    0    0  0.24443307527E-01 -0.30126246372E-01  0.60168119206E+01  0.60176528116E+01  0.92814905070E-01 0.  0.
       11    1    1    2    0    0 -0.18845478722E-01  0.31097905564E-01  0.59822359941E+01  0.59823465280E+01  0.51109989000E-03 0. -1.
     -623    1    1    2    0    0 -0.55978288050E-02 -0.97165919215E-03  0.95207444671E-03  0.25126700660E+02  0.25126700000E+02 0.  1.
     -611    1    3    3    0    0 -0.75586564324E-02  0.29257776451E-01  0.16284931508E+01  0.16288041911E+01  0.10000000000E-01 0. -1.
      611    1    3    3    0    0  0.32001963959E-01 -0.59384022823E-01  0.43883187699E+01  0.43888486205E+01  0.10000000000E-01 0.  1.
</event>
<event>
 7   0  0.6206631E-02  0.9118800E+02  0.7818608E-02  0.1180000E+00
       11   -1    0    0    0    0  0.00000000000E+00  0.00000000000E+00  0.11999999989E+02  0.12000000000E+02  0.51109989000E-03 0. -1.
     -623   -1    0    0    0    0  0.00000000000E+00  0.00000000000E+00  0.42561509872E-11  0.25126700000E+02  0.25126700000E+02 0.  1.
      622    2    1    2    0    0 -0.21056788038E-01 -0.22743950351E-01  0.98879559041E+01  0.98885010700E+01  0.99099826856E-01 0.  0.
       11    1    1    2    0    0  0.22323162704E-01  0.15883148210E-01  0.21113201410E+01  0.21114979510E+01  0.51109989000E-03 0. -1.
     -623    1    1    2    0    0 -0.12663746659E-02  0.68608021411E-02  0.72394407611E-03  0.25126700979E+02  0.25126700000E+02 0.  1.
     -611    1    3    3    0    0  0.13710059724E-01  0.29927792217E-01  0.20878429144E+01  0.20881263548E+01  0.10000000000E-01 0. -1.
      611    1    3    3    0    0 -0.34766847761E-01 -0.52671742568E-01  0.78001129897E+01  0.78003747152E+01  0.10000000000E-01 0.  1.
</event>
<event>
 7   0  0.6206631E-02  0.9118800E+02  0.7818608E-02  0.1180000E+00
       11   -1    0    0    0    0  0.00000000000E+00  0.00000000000E+00  0.11999999989E+02  0.12000000000E+02  0.51109989000E-03 0.  1.
     -623   -1    0    0    0    0  0.00000000000E+00  0.00000000000E+00  0.42561509872E-11  0.25126700000E+02  0.25126700000E+02 0. -1.
      622    2    1    2    0    0  0.31222963079E-02  0.66945214667E-02  0.11566737894E+02  0.11567282487E+02  0.11200020302E+00 0.  0.
       11    1    1    2    0    0  0.12864952281E-03 -0.13077002373E-02  0.43271442262E+00  0.43271671957E+00  0.51109989000E-03 0.  1.
     -623    1    1    2    0    0 -0.32509458307E-02 -0.53868212294E-02  0.54767214128E-03  0.25126700794E+02  0.25126700000E+02 0. -1.
     -611    1    3    3    0    0 -0.50447310276E-01  0.20949777474E-01  0.62196580276E+01  0.62199059321E+01  0.10000000000E-01 0.  1.
      611    1    3    3    0    0  0.53569606584E-01 -0.14255256007E-01  0.53470798667E+01  0.53473765546E+01  0.10000000000E-01 0. -1.
</event>
<event>
 7   0  0.6206631E-02  0.9118800E+02  0.7818608E-02  0.1180000E+00
       11   -1    0    0    0    0  0.00000000000E+00  0.00000000000E+00  0.11999999989E+02  0.12000000000E+02  0.51109989000E-03 0.  1.
     -623   -1    0    0    0    0  0.00000000000E+00  0.00000000000E+00  0.42561509872E-11  0.25126700000E+02  0.25126700000E+02 0.  1.
      622    2    1    2    0    0 -0.52009642417E-02  0.13377895406E-02  0.11983278295E+02  0.11983741588E+02  0.10523742494E+00 0.  0.
       11    1    1    2    0    0  0.23639304258E-02  0.66010346350E-02  0.14658245901E-01  0.16256913032E-01  0.51109989000E-03 0.  1.
     -623    1    1    2    0    0  0.28370338159E-02 -0.79388241756E-02  0.20634483994E-02  0.25126701499E+02  0.25126700000E+02 0.  1.
     -611    1    3    3    0    0  0.36428850896E-01  0.16016539682E-01  0.92308320937E+01  0.92309232871E+01  0.10000000000E-01 0.  1.
      611    1    3    3    0    0 -0.41629815138E-01 -0.14678750142E-01  0.27524462011E+01  0.27528183008E+01  0.10000000000E-01 0. -1.
</event>
<event>
 7   0  0.6206631E-02  0.9118800E+02  0.7818608E-02  0.1180000E+00
       11   -1    0    0    0    0  0.00000000000E+00  0.00000000000E+00  0.11999999989E+02  0.12000000000E+02  0.51109989000E-03 0. -1.
     -623   -1    0    0    0    0  0.00000000000E+00  0.00000000000E+00  0.42561509872E-11  0.25126700000E+02  0.25126700000E+02 0.  1.
      622    2    1    2    0    0  0.18738481157E-02  0.22629588258E-02  0.11982765637E+02  0.11983019338E+02  0.77919930371E-01 0.  0.
       11    1    1    2    0    0  0.19421234833E-02 -0.23861694540E-02  0.16691493594E-01  0.16980366010E-01  0.51109989000E-03 0. -1.
     -623    1    1    2    0    0 -0.38159715989E-02  0.12321062818E-03  0.54285864227E-03  0.25126700296E+02  0.25126700000E+02 0.  1.
     -611    1    3    3    0    0  0.63899737213E-02 -0.33564969665E-01  0.37661683221E+01  0.37663365847E+01  0.10000000000E-01 0. -1.
      611    1    3    3    0    0 -0.45161256057E-02  0.35827928491E-01  0.82165973148E+01  0.82166827534E+01  0.10000000000E-01 0. -1.
</event>
<event>
 7   0  0.6206631E-02  0.9118800E+02  0.7818608E-02  0.1180000E+00
       11   -1    0    0    0    0  0.00000000000E+00  0.00000000000E+00  0.11999999989E+02  0.12000000000E+02  0.51109989000E-03 0. -1.
     -623   -1    0    0    0    0  0.00000000000E+00  0.00000000000E+00  0.42561509872E-11  0.25126700000E+02  0.25126700000E+02 0.  1.
      622    2    1    2    0    0 -0.88537836942E-03 -0.91222200657E-03  0.11997436765E+02  0.11997784239E+02  0.91302205593E-01 0.  0.
       11    1    1    2    0    0  0.22223740626E-03 -0.30792929228E-03  0.21222572677E-02  0.22157186085E-02  0.51109989000E-03 0. -1.
     -623    1    1    2    0    0  0.66314096316E-03  0.12201512988E-02  0.44096642979E-03  0.25126700042E+02  0.25126700000E+02 0.  1.
     -611    1    3    3    0    0  0.25542665002E-03  0.33599747516E-01  0.97245297920E+01  0.97245929830E+01  0.10000000000E-01 0. -1.
      611    1    3    3    0    0 -0.11408050194E-02 -0.34511969523E-01  0.22729069734E+01  0.22731912562E+01  0.10000000000E-01 0.  1.
</event>
<event>
 7   0  0.6206631E-02  0.9118800E+02  0.7818608E-02  0.1180000E+00
       11   -1    0    0    0    0  0.00000000000E+00  0.00000000000E+00  0.11999999989E+02  0.12000000000E+02  0.51109989000E-03 0. -1.
     -623   -1    0    0    0    0  0.00000000000E+00  0.00000000000E+00  0.42561509872E-11  0.25126700000E+02  0.25126700000E+02 0. -1.
      622    2    1    2    0    0  0.70999568011E-02 -0.11364522366E-01  0.11271246014E+02  0.11271633379E+02  0.92481122209E-01 0.  0.
       11    1    1    2    0    0 -0.99065434229E-02  0.12638210763E-01  0.72818920909E+00  0.72836642525E+00  0.51109989000E-03 0. -1.
     -623    1    1    2    0    0  0.28065866218E-02 -0.12736883969E-02  0.56476553142E-03  0.25126700195E+02  0.25126700000E+02 0. -1.
     -611    1    3    3    0    0  0.13280110770E-01 -0.26142588844E-01  0.12986393347E+01  0.12990088214E+01  0.10000000000E-01 0. -1.
      611    1    3    3    0    0 -0.61801539689E-02  0.14778066478E-01  0.99726066798E+01  0.99726245580E+01  0.10000000000E-01 0. -1.
</event>
<event>
 7   0  0.6206631E-02  0.9118800E+02  0.7818608E-02  0.1180000E+00
       11   -1    0    0    0    0  0.00000000000E+00  0.00000000000E+00  0.11999999989E+02  0.12000000000E+02  0.51109989000E-03 0. -1.
     -623   -1    0    0    0    0  0.00000000000E+00  0.00000000000E+00  0.42561509872E-11  0.25126700000E+02  0.25126700000E+02 0. -1.
      622    2    1    2    0    0 -0.12658312744E-02  0.14323783282E-02  0.11988345052E+02  0.11988621159E+02  0.81342090408E-01 0.  0.
       11    1    1    2    0    0  0.13776743341E-02 -0.94602636599E-03  0.11243827818E-01  0.11378832962E-01  0.51109989000E-03 0. -1.
     -623    1    1    2    0    0 -0.11184305970E-03 -0.48635196217E-03  0.41110881191E-03  0.25126700008E+02  0.25126700000E+02 0. -1.
     -611    1    3    3    0    0  0.26942202731E-01  0.12542721323E-01  0.21937408738E+01  0.21939649550E+01  0.10000000000E-01 0.  1.
      611    1    3    3    0    0 -0.28208034005E-01 -0.11110342994E-01  0.97946041787E+01  0.97946562037E+01  0.10000000000E-01 0. -1.
</event>
<event>
 7   0  0.6206631E-02  0.9118800E+02  0.7818608E-02  0.1180000E+00
       11   -1    0    0    0    0  0.00000000000E+00  0.00000000000E+00  0.11999999989E+02  0.12000000000E+02  0.51109989000E-03 0.  1.
     -623   -1    0    0    0    0  0.00000000000E+00  0.00000000000E+00  0.42561509872E-11  0.25126700000E+02  0.25126700000E+02 0.  1.
      622    2    1    2    0    0  0.44144924993E-01 -0.63728468729E-01  0.96878950002E+01  0.96888111564E+01  0.10836049913E+00 0.  0.
       11    1    1    2    0    0 -0.30357682450E-01  0.74157933031E-01  0.23097932030E+01  0.23111827902E+01  0.51109989000E-03 0.  1.
     -623    1    1    2    0    0 -0.13787242543E-01 -0.10429464302E-01  0.23117859949E-02  0.25126706053E+02  0.25126700000E+02 0.  1.
     -611    1    3    3    0    0  0.73905516981E-01 -0.66326175831E-01  0.79962887591E+01  0.79969115980E+01  0.10000000000E-01 0.  1.
      611    1    3    3    0    0 -0.29760591988E-01  0.25977071018E-02  0.16916062411E+01  0.16918995584E+01  0.10000000000E-01 0.  1.
</event>
<event>
 7   0  0.6206631E-02  0.9118800E+02  0.7818608E-02  0.1180000E+00
       11   -1    0    0    0    0  0.00000000000E+00  0.00000000000E+00  0.11999999989E+02  0.12000000000E+02  0.51109989000E-03 0. -1.
     -623   -1    0    0    0    0  0.00000000000E+00  0.00000000000E+00  0.42561509872E-11  0.25126700000E+02  0.25126700000E+02 0.  1.
      622    2    1    2    0    0  0.43670536962E-03  0.11915974698E-02  0.11991959908E+02  0.11992326970E+02  0.93819620296E-01 0.  0.
       11    1    1    2    0    0  0.56794999672E-03  0.40969315357E-04  0.76347296825E-02  0.76729763564E-02  0.51109989000E-03 0. -1.
     -623    1    1    2    0    0 -0.10046553663E-02 -0.12325667851E-02  0.40535185731E-03  0.25126700054E+02  0.25126700000E+02 0.  1.
     -611    1    3    3    0    0  0.42455242838E-01  0.17736555710E-01  0.54367443536E+01  0.54369482432E+01  0.10000000000E-01 0.  1.
      611    1    3    3    0    0 -0.42018537468E-01 -0.16544958240E-01  0.65552155540E+01  0.65553787269E+01  0.10000000000E-01 0. -1.
</event>
<event>
 7   0  0.6206631E-02  0.9118800E+02  0.7818608E-02  0.1180000E+00
       11   -1    0    0    0    0  0.00000000000E+00  0.00000000000E+00  0.11999999989E+02  0.12000000000E+02  0.51109989000E-03 0.  1.
     -623   -1    0    0    0    0  0.00000000000E+00  0.00000000000E+00  0.42561509872E-11  0.25126700000E+02  0.25126700000E+02 0. -1.
      622    2    1    2    0    0  0.71331515855E-02 -0.11659652928E-03  0.11729448460E+02  0.11730239455E+02  0.13603527847E+00 0.  0.
       11    1    1    2    0    0  0.44096846134E-02 -0.14398208279E-01  0.26933256105E+00  0.26975367168E+00  0.51109989000E-03 0.  1.
     -623    1    1    2    0    0 -0.11542836199E-01  0.14514804808E-01  0.12189678205E-02  0.25126706873E+02  0.25126700000E+02 0. -1.
     -611    1    3    3    0    0 -0.10785511054E-01  0.51385378984E-01  0.22723979128E+01  0.22730264096E+01  0.10000000000E-01 0. -1.
      611    1    3    3    0    0  0.17918662640E-01 -0.51501975513E-01  0.94570505474E+01  0.94572130455E+01  0.10000000000E-01 0.  1.
</event>
<event>
 7   0  0.6206631E-02  0.9118800E+02  0.7818608E-02  0.1180000E+00
       11   -1    0    0    0    0  0.00000000000E+00  0.00000000000E+00  0.11999999989E+02  0.12000000000E+02  0.51109989000E-03 0.  1.
     -623   -1    0    0    0    0  0.00000000000E+00  0.00000000000E+00  0.42561509872E-11  0.25126700000E+02  0.25126700000E+02 0. -1.
      622    2    1    2    0    0  0.71313169762E-02 -0.72689004192E-02  0.11980177823E+02  0.11980509014E+02  0.88497748435E-01 0.  0.
       11    1    1    2    0    0 -0.46972454914E-02  0.30638018319E-02  0.18659232948E-01  0.19490489842E-01  0.51109989000E-03 0.  1.
     -623    1    1    2    0    0 -0.24340714848E-02  0.42050985873E-02  0.11629328708E-02  0.25126700497E+02  0.25126700000E+02 0. -1.
     -611    1    3    3    0    0 -0.21176613024E-01  0.31091503730E-01  0.64106907288E+01  0.64108088999E+01  0.10000000000E-01 0.  1.
      611    1    3    3    0    0  0.28307930000E-01 -0.38360404149E-01  0.55694870945E+01  0.55697001136E+01  0.10000000000E-01 0. -1.
</event>
<event>
 7   0  0.6206631E-02  0.9118800E+02  0.7818608E-02  0.1180000E+00
       11   -1    0    0    0    0  0.00000000000E+00  0.00000000000E+00  0.11999999989E+02  0.12000000000E+02  0.51109989000E-03 0.  1.
     -623   -1    0    0    0    0  0.00000000000E+00  0.00000000000E+00  0.42561509872E-11  0.25126700000E+02  0.25126700000E+02 0.  1.
      622    2    1    2    0    0 -0.14669655582E-01 -0.12915993304E-01  0.10654187826E+02  0.10654735800E+02  0.10627655125E+00 0.  0.
       11    1    1    2    0    0  0.17411091126E-01  0.13063050272E-01  0.13450878357E+01  0.13452640396E+01  0.51109989000E-03 0.  1.
     -623    1    1    2    0    0 -0.27414355440E-02 -0.14705696766E-03  0.72432705488E-03  0.25126700160E+02  0.25126700000E+02 0.  1.
     -611    1    3    3    0    0  0.93882328111E-02  0.23420493434E-01  0.82510931701E+00  0.82555559682E+00  0.10000000000E-01 0.  1.
      611    1    3    3    0    0 -0.24057888393E-01 -0.36336486738E-01  0.98290785094E+01  0.98291802031E+01  0.10000000000E-01 0.  1.
</event>
<event>
 7   0  0.6206631E-02  0.9118800E+02  0.7818608E-02  0.1180000E+00
       11   -1    0    0    0    0  0.00000000000E+00  0.00000000000E+00  0.11999999989E+02  0.12000000000E+02  0.51109989000E-03 0.  1.
     -623   -1    0    0    0    0  0.00000000000E+00  0.00000000000E+00  0.42561509872E-11  0.25126700000E+02  0.25126700000E+02 0. -1.
      622    2    1    2    0    0  0.14921438448E-01 -0.46950895489E-01  0.10482924171E+02  0.10484332924E+02  0.16465317580E+00 0.  0.
       11    1    1    2    0    0 -0.32863733556E-01  0.81742015696E-01  0.15130734426E+01  0.15156362644E+01  0.51109989000E-03 0.  1.
     -623    1    1    2    0    0  0.17942295108E-01 -0.34791120207E-01  0.40023759672E-02  0.25126730811E+02  0.25126700000E+02 0. -1.
     -611    1    3    3    0    0 -0.12001052160E-01 -0.10059527050E+00  0.80682112756E+01  0.80688534887E+01  0.10000000000E-01 0.  1.
      611    1    3    3    0    0  0.26922490607E-01  0.53644375010E-01  0.24147128950E+01  0.24154794358E+01  0.10000000000E-01 0. -1.
</event>
<event>
 7   0  0.6206631E-02  0.9118800E+02  0.7818608E-02  0.1180000E+00
       11   -1    0    0    0    0  0.00000000000E+00  0.00000000000E+00  0.11999999989E+02  0.12000000000E+02  0.51109989000E-03 0.  1.
     -623   -1    0    0    0    0  0.00000000000E+00  0.00000000000E+00  0.42561509872E-11  0.25126700000E+02  0.25126700000E+02 0.  1.
      622    2    1    2    0    0 -0.17332968267E-03  0.37935753675E-02  0.11809767918E+02  0.11810194524E+02  0.10030956593E+00 0.  0.
       11    1    1    2    0    0 -0.20036970508E-02 -0.24430615035E-02  0.18977835213E+00  0.18980534110E+00  0.51109989000E-03 0.  1.
     -623    1    1    2    0    0  0.21770267335E-02 -0.13505138640E-02  0.45371932792E-03  0.25126700135E+02  0.25126700000E+02 0.  1.
     -611    1    3    3    0    0  0.22364842185E-02 -0.41421588927E-01  0.84364849926E+01  0.84365929012E+01  0.10000000000E-01 0. -1.
      611    1    3    3    0    0 -0.24098139011E-02  0.45215164294E-01  0.33732829250E+01  0.33736016229E+01  0.10000000000E-01 0.  1.
</event>
<event>
 7   0  0.6206631E-02  0.9118800E+02  0.7818608E-02  0.1180000E+00
       11   -1    0    0    0    0  0.00000000000E+00  0.00000000000E+00  0.11999999989E+02  0.12000000000E+02  0.51109989000E-03 0.  1.
     -623   -1    0    0    0    0  0.00000000000E+00  0.00000000000E+00  0.42561509872E-11  0.25126700000E+02  0.25126700000E+02 0. -1.
      622    2    1    2    0    0  0.11127293570E-02 -0.29209722168E-02  0.11613339016E+02  0.11613783854E+02  0.10159988261E+00 0.  0.
       11    1    1    2    0    0 -0.11586616089E-01  0.20610597573E-02  0.38603425915E+00  0.38621394084E+00  0.51109989000E-03 0.  1.
     -623    1    1    2    0    0  0.10473886732E-01  0.85991245947E-03  0.62671430318E-03  0.25126702206E+02  0.25126700000E+02 0. -1.
     -611    1    3    3    0    0  0.18691154456E-01  0.21505427930E-01  0.11488329407E+01  0.11492297283E+01  0.10000000000E-01 0.  1.
      611    1    3    3    0    0 -0.17578425099E-01 -0.24426400147E-01  0.10464506075E+02  0.10464554125E+02  0.10000000000E-01 0.  1.
</event>
<event>
 7   0  0.6206631E-02  0.9118800E+02  0.7818608E-02  0.1180000E+00
       11   -1    0    0    0    0  0.00000000000E+00  0.00000000000E+00  0.11999999989E+02  0.12000000000E+02  0.51109989000E-03 0.  1.
     -623   -1    0    0    0    0  0.00000000000E+00  0.00000000000E+00  0.42561509872E-11  0.25126700000E+02  0.25126700000E+02 0.  1.
      622    2    1    2    0    0 -0.11073218243E+00  0.31773918820E-01  0.63932384373E+01  0.63948889634E+01  0.88520846767E-01 0.  0.
       11    1    1    2    0    0  0.10151917459E+00 -0.47115822325E-01  0.56039869977E+01  0.56051045106E+01  0.51109989000E-03 0.  1.
     -623    1    1    2    0    0  0.92130078390E-02  0.15341903504E-01  0.27745541455E-02  0.25126706526E+02  0.25126700000E+02 0.  1.
     -611    1    3    3    0    0 -0.83674619203E-01  0.53104467985E-01  0.34668427117E+01  0.34682733332E+01  0.10000000000E-01 0.  1.
      611    1    3    3    0    0 -0.27057563224E-01 -0.21330549165E-01  0.29263957256E+01  0.29266156302E+01  0.10000000000E-01 0. -1.
</event>
<event>
 7   0  0.6206631E-02  0.9118800E+02  0.7818608E-02  0.1180000E+00
       11   -1    0    0    0    0  0.00000000000E+00  0.00000000000E+00  0.11999999989E+02  0.12000000000E+02  0.51109989000E-03 0.  1.
     -623   -1    0    0    0    0  0.00000000000E+00  0.00000000000E+00  0.42561509872E-11  0.25126700000E+02  0.25126700000E+02 0. -1.
      622    2    1    2    0    0 -0.97845232249E-03  0.78099993392E-02  0.11871076418E+02  0.11871643454E+02  0.11576280390E+00 0.  0.
       11    1    1    2    0    0  0.53031134982E-02 -0.61320132643E-02  0.12809880436E+00  0.12835610426E+00  0.51109989000E-03 0.  1.
     -623    1    1    2    0    0 -0.43246611758E-02 -0.16779860750E-02  0.82476689346E-03  0.25126700442E+02  0.25126700000E+02 0. -1.
     -611    1    3    3    0    0 -0.57123039358E-01 -0.16477311585E-02  0.63012672802E+01  0.63015343444E+01  0.10000000000E-01 0. -1.
      611    1    3    3    0    0  0.56144587035E-01  0.94577304978E-02  0.55698091376E+01  0.55701091096E+01  0.10000000000E-01 0.  1.
</event>
<event>
 7   0  0.6206631E-02  0.9118800E+02  0.7818608E-02  0.1180000E+00
       11   -1    0    0    0    0  0.00000000000E+00  0.00000000000E+00  0.11999999989E+02  0.12000000000E+02  0.51109989000E-03 0.  1.
     -623   -1    0    0    0    0  0.00000000000E+00  0.00000000000E+00  0.42561509872E-11  0.25126700000E+02  0.25126700000E+02 0. -1.
      622    2    1    2    0    0  0.66429819393E-02  0.68425221085E-02  0.11980324277E+02  0.11980707350E+02  0.95330411238E-01 0.  0.
       11    1    1    2    0    0 -0.83176114846E-02  0.28850488988E-02  0.17156901526E-01  0.19290584778E-01  0.51109989000E-03 0.  1.
     -623    1    1    2    0    0  0.16746295453E-02 -0.97275710073E-02  0.25188109100E-02  0.25126702065E+02  0.25126700000E+02 0. -1.
     -611    1    3    3    0    0  0.90376712382E-02  0.41570648176E-01  0.30868968767E+01  0.30872062007E+01  0.10000000000E-01 0. -1.
      611    1    3    3    0    0 -0.23946892989E-02 -0.34728126068E-01  0.88934274000E+01  0.88935011495E+01  0.10000000000E-01 0.  1.
</event>
<event>
 7   0  0.6206631E-02  0.9118800E+02  0.7818608E-02  0.1180000E+00
       11   -1    0    0    0    0  0.00000000000E+00  0.00000000000E+00  0.11999999989E+02  0.12000000000E+02  0.51109989000E-03 0. -1.
     -623   -1    0    0    0    0  0.00000000000E+00  0.00000000000E+00  0.42561509872E-11  0.25126700000E+02  0.25126700000E+02 0.  1.
      622    2    1    2    0    0 -0.36082000016E-02  0.61490624303E-03  0.10514065638E+02  0.10514403258E+02  0.84179863732E-01 0.  0.
       11    1    1    2    0    0  0.39907613344E-02 -0.56252765883E-03  0.14855911816E+01  0.14855967363E+01  0.51109989000E-03 0. -1.
     -623    1    1    2    0    0 -0.38256133279E-03 -0.52378584201E-04  0.34316976952E-03  0.25126700005E+02  0.25126700000E+02 0.  1.
     -611    1    3    3    0    0  0.10497834413E-02 -0.39800708367E-01  0.61300688408E+01  0.61302062927E+01  0.10000000000E-01 0. -1.
      611    1    3    3    0    0 -0.46579834429E-02  0.40415614610E-01  0.43839967969E+01  0.43841969657E+01  0.10000000000E-01 0. -1.
</event>
<event>
 7   0  0.6206631E-02  0.9118800E+02  0.7818608E-02  0.1180000E+00
       11   -1    0    0    0    0  0.00000000000E+00  0.00000000000E+00  0.11999999989E+02  0.12000000000E+02  0.51109989000E-03 0.  1.
     -623   -1    0    0    0    0  0.00000000000E+00  0.00000000000E+00  0.42561509872E-11  0.25126700000E+02  0.25126700000E+02 0.  1.
      622    2    1    2    0    0 -0.48771040900E-02 -0.11034716802E-01  0.11924517025E+02  0.11925009799E+02  0.10773512782E+00 0.  0.
       11    1    1    2    0    0 -0.38702439440E-02  0.48573539610E-03  0.74883194618E-01  0.74986457354E-01  0.51109989000E-03 0.  1.
     -623    1    1    2    0    0  0.87473480340E-02  0.10548981406E-01  0.59976926773E-03  0.25126703744E+02  0.25126700000E+02 0.  1.
     -611    1    3    3    0    0 -0.19182655062E-01  0.12752800783E-01  0.10986867529E+02  0.10986896227E+02  0.10000000000E-01 0.  1.
      611    1    3    3    0    0  0.14305550972E-01 -0.23787517585E-01  0.93764949625E+00  0.93811357127E+00  0.10000000000E-01 0. -1.
</event>
<event>
 7   0  0.6206631E-02  0.9118800E+02  0.7818608E-02  0.1180000E+00
       11   -1    0    0    0    0  0.00000000000E+00  0.00000000000E+00  0.11999999989E+02  0.12000000000E+02  0.51109989000E-03 0. -1.
     -623   -1    0    0    0    0  0.00000000000E+00  0.00000000000E+00  0.42561509872E-11  0.25126700000E+02  0.25126700000E+02 0.  1.
      622    2    1    2    0    0 -0.71647364271E-02 -0.73337817522E-03  0.11977128715E+02  0.11977727279E+02  0.11952677020E+00 0.  0.
       11    1    1    2    0    0 -0.16299055151E-02  0.31835835116E-02  0.21976043216E-01  0.22271046103E-01  0.51109989000E-03 0. -1.
     -623    1    1    2    0    0  0.87946419422E-02 -0.24502053364E-02  0.89523077083E-03  0.25126701675E+02  0.25126700000E+02 0.  1.
     -611    1    3    3    0    0 -0.21293780150E-01 -0.40427949276E-01  0.21749415659E+01  0.21754444740E+01  0.10000000000E-01 0. -1.
      611    1    3    3    0    0  0.14129043723E-01  0.39694571101E-01  0.98021871492E+01  0.98022828054E+01  0.10000000000E-01 0. -1.
</event>
<event>
 7   0  0.6206631E-02  0.9118800E+02  0.7818608E-02  0.1180000E+00
       11   -1    0    0    0    0  0.00000000000E+00  0.00000000000E+00  0.11999999989E+02  0.12000000000E+02  0.51109989000E-03 0.  1.
     -623   -1    0    0    0    0  0.00000000000E+00  0.00000000000E+00  0.42561509872E-11  0.25126700000E+02  0.25126700000E+02 0. -1.
      622    2    1    2    0    0  0.58712995725E-03  0.96323706877E-03  0.11859066923E+02  0.11859223611E+02  0.60951609685E-01 0.  0.
       11    1    1    2    0    0 -0.32397992288E-03 -0.10943751108E-02  0.14077083221E+00  0.14077638667E+00  0.51109989000E-03 0.  1.
     -623    1    1    2    0    0 -0.26315003437E-03  0.13113804198E-03  0.16223381478E-03  0.25126700002E+02  0.25126700000E+02 0. -1.
     -611    1    3    3    0    0  0.15075711600E-02 -0.22641798201E-01  0.25323525579E+01  0.25324739685E+01  0.10000000000E-01 0. -1.
      611    1    3    3    0    0 -0.92044120273E-03  0.23605035270E-01  0.93267143652E+01  0.93267496425E+01  0.10000000000E-01 0.  1.
</event>
<event>
 7   0  0.6206631E-02  0.9118800E+02  0.7818608E-02  0.1180000E+00
       11   -1    0    0    0    0  0.00000000000E+00  0.00000000000E+00  0.11999999989E+02  0.12000000000E+02  0.51109989000E-03 0. -1.
     -623   -1    0    0    0    0  0.00000000000E+00  0.00000000000E+00  0.42561509872E-11  0.25126700000E+02  0.25126700000E+02 0. -1.
      622    2    1    2    0    0 -0.10402416564E-01 -0.65531696574E-02  0.11516713447E+02  0.11517257869E+02  0.11130607654E+00 0.  0.
       11    1    1    2    0    0  0.37842453868E-02 -0.81374430530E-02  0.48265326044E+00  0.48273695687E+00  0.51109989000E-03 0. -1.
     -623    1    1    2    0    0  0.66181711771E-02  0.14690612710E-01  0.63328147187E-03  0.25126705174E+02  0.25126700000E+02 0. -1.
     -611    1    3    3    0    0 -0.13141498070E-01  0.18845082550E-01  0.61538609230E+00  0.61589599666E+00  0.10000000000E-01 0.  1.
      611    1    3    3    0    0  0.27390815062E-02 -0.25398252207E-01  0.10901327355E+02  0.10901361872E+02  0.10000000000E-01 0. -1.
</event>
<event>
 7   0  0.6206631E-02  0.9118800E+02  0.7818608E-02  0.1180000E+00
       11   -1    0    0    0    0  0.00000000000E+00  0.00000000000E+00  0.11999999989E+02  0.12000000000E+02  0.51109989000E-03 0. -1.
     -623   -1    0    0    0    0  0.00000000000E+00  0.00000000000E+00  0.42561509872E-11  0.25126700000E+02  0.25126700000E+02 0.  1.
      622    2    1    2    0    0  0.10044891984E-01 -0.15342921432E-01  0.99770835887E+01  0.99775419497E+01  0.93862221489E-01 0.  0.
       11    1    1    2    0    0 -0.41374232321E-02 -0.57681301229E-02  0.20224359605E+01  0.20224484827E+01  0.51109989000E-03 0. -1.
     -623    1    1    2    0    0 -0.59074687515E-02  0.21111051555E-01  0.48043991141E-03  0.25126709568E+02  0.25126700000E+02 0.  1.
     -611    1    3    3    0    0 -0.27966800268E-01 -0.19246555041E-01  0.79206385023E+01  0.79207175720E+01  0.10000000000E-01 0. -1.
      611    1    3    3    0    0  0.38011692252E-01  0.39036336082E-02  0.20564450864E+01  0.20568243777E+01  0.10000000000E-01 0.  1.
</event>
<event>
 7   0  0.6206631E-02  0.9118800E+02  0.7818608E-02  0.1180000E+00
       11   -1    0    0    0    0  0.00000000000E+00  0.00000000000E+00  0.11999999989E+02  0.12000000000E+02  0.51109989000E-03 0.  1.
     -623   -1    0    0    0    0  0.00000000000E+00  0.00000000000E+00  0.42561509872E-11  0.25126700000E+02  0.25126700000E+02 0. -1.
      622    2    1    2    0    0  0.33654806109E-01 -0.31814135471E-01  0.11405219146E+02  0.11405744100E+02  0.99145944015E-01 0.  0.
       11    1    1    2    0    0 -0.32262042263E-01  0.28395286751E-01  0.59269912850E+00  0.59425554253E+00  0.51109989000E-03 0.  1.
     -623    1    1    2    0    0 -0.13927638458E-02  0.34188487194E-02  0.20817144450E-02  0.25126700357E+02  0.25126700000E+02 0. -1.
     -611    1    3    3    0    0 -0.32095959835E-01 -0.76162400718E-02  0.24092159568E+01  0.24094625302E+01  0.10000000000E-01 0. -1.
      611    1    3    3    0    0  0.65750765944E-01 -0.24197895399E-01  0.89960031894E+01  0.89962815699E+01  0.10000000000E-01 0.  1.
</event>
<event>
 7   0  0.6206631E-02  0.9118800E+02  0.7818608E-02  0.1180000E+00
       11   -1    0    0    0    0  0.00000000000E+00  0.00000000000E+00  0.11999999989E+02  0.12000000000E+02  0.51109989000E-03 0. -1.
     -623   -1    0    0    0    0  0.00000000000E+00  0.00000000000E+00  0.42561509872E-11  0.25126700000E+02  0.25126700000E+02 0.  1.
      622    2    1    2    0    0 -0.44481664696E-02  0.68625416223E-02  0.10608070799E+02  0.10608649154E+02  0.11047132030E+00 0.  0.
       11    1    1    2    0    0  0.39402483339E-02 -0.67665657129E-02  0.13913287065E+01  0.13913508338E+01  0.51109989000E-03 0. -1.
     -623    1    1    2    0    0  0.50791813568E-03 -0.95975909376E-04  0.60048378263E-03  0.25126700012E+02  0.25126700000E+02 0.  1.
     -611    1    3    3    0    0  0.37328262204E-01 -0.19502611871E-01  0.78401355654E+01  0.78402550618E+01  0.10000000000E-01 0.  1.
      611    1    3    3    0    0 -0.41776428674E-01  0.26365153493E-01  0.27679352335E+01  0.27683940919E+01  0.10000000000E-01 0. -1.
</event>
<event>
 7   0  0.6206631E-02  0.9118800E+02  0.7818608E-02  0.1180000E+00
       11   -1    0    0    0    0  0.00000000000E+00  0.00000000000E+00  0.11999999989E+02  0.12000000000E+02  0.51109989000E-03 0. -1.
     -623   -1    0    0    0    0  0.00000000000E+00  0.00000000000E+00  0.42561509872E-11  0.25126700000E+02  0.25126700000E+02 0.  1.
      622    2    1    2    0    0  0.87480241643E-01  0.92740478284E-01  0.96382169452E+00  0.97764870840E+00  0.10291330921E+00 0.  0.
       11    1    1    2    0    0 -0.47009259146E-01 -0.70559526981E-01  0.11021978790E+02  0.11022304896E+02  0.51109989000E-03 0. -1.
     -623    1    1    2    0    0 -0.40470982496E-01 -0.22180951303E-01  0.14199504484E-01  0.25126746395E+02  0.25126700000E+02 0.  1.
     -611    1    3    3    0    0  0.55996390269E-01  0.62148271322E-02  0.19361767399E+00  0.20189607099E+00  0.10000000000E-01 0. -1.
      611    1    3    3    0    0  0.31483851374E-01  0.86525651152E-01  0.77020402052E+00  0.77575263740E+00  0.10000000000E-01 0.  1.
</event>
<event>
 7   0  0.6206631E-02  0.9118800E+02  0.7818608E-02  0.1180000E+00
       11   -1    0    0    0    0  0.00000000000E+00  0.00000000000E+00  0.11999999989E+02  0.12000000000E+02  0.51109989000E-03 0.  1.
     -623   -1    0    0    0    0  0.00000000000E+00  0.00000000000E+00  0.42561509872E-11  0.25126700000E+02  0.25126700000E+02 0. -1.
      622    2    1    2    0    0 -0.13563835995E-01 -0.17567901262E-01  0.71465450467E+01  0.71472778849E+01  0.99912219138E-01 0.  0.
       11    1    1    2    0    0 -0.54429129058E-03 -0.11826219985E-02  0.48527109456E+01  0.48527111472E+01  0.51109989000E-03 0.  1.
     -623    1    1    2    0    0  0.14108127285E-01  0.18750523260E-01  0.74399683512E-03  0.25126710968E+02  0.25126700000E+02 0. -1.
     -611    1    3    3    0    0 -0.35819912628E-02 -0.24305178852E-01  0.49204565897E+00  0.49276008654E+00  0.10000000000E-01 0.  1.
      611    1    3    3    0    0 -0.99818447317E-02  0.67372775903E-02  0.66544993877E+01  0.66545177984E+01  0.10000000000E-01 0.  1.
</event>
<event>
 7   0  0.6206631E-02  0.9118800E+02  0.7818608E-02  0.1180000E+00
       11   -1    0    0    0    0  0.00000000000E+00  0.00000000000E+00  0.11999999989E+02  0.12000000000E+02  0.51109989000E-03 0.  1.
     -623   -1    0    0    0    0  0.00000000000E+00  0.00000000000E+00  0.42561509872E-11  0.25126700000E+02  0.25126700000E+02 0.  1.
      622    2    1    2    0    0 -0.10438934339E+00 -0.29024424369E-02  0.89097080995E+01  0.89109177876E+01  0.10320775387E+00 0.  0.
       11    1    1    2    0    0  0.10408735534E+00 -0.10693999908E-02  0.30873273719E+01  0.30890817218E+01  0.51109989000E-03 0.  1.
     -623    1    1    2    0    0  0.30198804391E-03  0.39718424276E-02  0.29645177200E-02  0.25126700491E+02  0.25126700000E+02 0.  1.
     -611    1    3    3    0    0 -0.38319162989E-01 -0.15808925566E-01  0.67561483541E+01  0.67562829177E+01  0.10000000000E-01 0.  1.
      611    1    3    3    0    0 -0.66070180398E-01  0.12906483130E-01  0.21535597453E+01  0.21546348699E+01  0.10000000000E-01 0. -1.
</event>
<event>
 7   0  0.6206631E-02  0.9118800E+02  0.7818608E-02  0.1180000E+00
       11   -1    0    0    0    0  0.00000000000E+00  0.00000000000E+00  0.11999999989E+02  0.12000000000E+02  0.51109989000E-03 0. -1.
     -623   -1    0    0    0    0  0.00000000000E+00  0.00000000000E+00  0.42561509872E-11  0.25126700000E+02  0.25126700000E+02 0. -1.
      622    2    1    2    0    0  0.64083379774E-02 -0.30930597920E-02  0.11928479022E+02  0.11929013276E+02  0.11267351088E+00 0.  0.
       11    1    1    2    0    0  0.47204516174E-02 -0.78891566388E-03  0.70820582663E-01  0.70983950322E-01  0.51109989000E-03 0. -1.
     -623    1    1    2    0    0 -0.11128789595E-01  0.38819754559E-02  0.70038463764E-03  0.25126702774E+02  0.25126700000E+02 0. -1.
     -611    1    3    3    0    0 -0.71818926261E-02  0.28174398919E-02  0.15292100434E+00  0.15344168637E+00  0.10000000000E-01 0. -1.
      611    1    3    3    0    0  0.13590230604E-01 -0.59104996839E-02  0.11775558017E+02  0.11775571589E+02  0.10000000000E-01 0. -1.
</event>
<event>
 7   0  0.6206631E-02  0.9118800E+02  0.7818608E-02  0.1180000E+00
       11   -1    0    0    0    0  0.00000000000E+00  0.00000000000E+00  0.11999999989E+02  0.12000000000E+02  0.51109989000E-03 0.  1.
     -623   -1    0    0    0    0  0.00000000000E+00  0.00000000000E+00  0.42561509872E-11  0.25126700000E+02  0.25126700000E+02 0. -1.
      622    2    1    2    0    0 -0.14353707772E-02  0.90443402974E-02  0.11690913908E+02  0.11691723596E+02  0.13729082198E+00 0.  0.
       11    1    1    2    0    0  0.45393734302E-02 -0.71824296798E-02  0.30815858860E+00  0.30827612648E+00  0.51109989000E-03 0.  1.
     -623    1    1    2    0    0 -0.31040026530E-02 -0.18619106177E-02  0.92749236644E-03  0.25126700278E+02  0.25126700000E+02 0. -1.
     -611    1    3    3    0    0 -0.23634964584E-01 -0.38530551467E-01  0.16035922413E+01  0.16042603565E+01  0.10000000000E-01 0. -1.
      611    1    3    3    0    0  0.22199593806E-01  0.47574891764E-01  0.10087321667E+02  0.10087463239E+02  0.10000000000E-01 0.  1.
</event>
<event>
 7   0  0.6206631E-02  0.9118800E+02  0.7818608E-02  0.1180000E+00
       11   -1    0    0    0    0  0.00000000000E+00  0.00000000000E+00  0.11999999989E+02  0.12000000000E+02  0.51109989000E-03 0. -1.
     -623   -1    0    0    0    0  0.00000000000E+00  0.00000000000E+00  0.42561509872E-11  0.25126700000E+02  0.25126700000E+02 0.  1.
      622    2    1    2    0    0  0.31860335805E-02 -0.35990948828E-02  0.11000955455E+02  0.11001295218E+02  0.86327573637E-01 0.  0.
       11    1    1    2    0    0 -0.39502533594E-02  0.29198802197E-02  0.99869254722E+00  0.99870475882E+00  0.51109989000E-03 0. -1.
     -623    1    1    2    0    0  0.76421977890E-03  0.67921466318E-03  0.35198715358E-03  0.25126700023E+02  0.25126700000E+02 0.  1.
     -611    1    3    3    0    0 -0.31856498972E-02 -0.15032105922E-01  0.51404155809E+00  0.51436838551E+00  0.10000000000E-01 0. -1.
      611    1    3    3    0    0  0.63716834777E-02  0.11433011039E-01  0.10486913897E+02  0.10486926832E+02  0.10000000000E-01 0. -1.
</event>
<event>
 7   0  0.6206631E-02  0.9118800E+02  0.7818608E-02  0.1180000E+00
       11   -1    0    0    0    0  0.00000000000E+00  0.00000000000E+00  0.11999999989E+02  0.12000000000E+02  0.51109989000E-03 0.  1.
     -623   -1    0    0    0    0  0.00000000000E+00  0.00000000000E+00  0.42561509872E-11  0.25126700000E+02  0.25126700000E+02 0.  1.
      622    2    1    2    0    0 -0.47994108279E-01  0.21019353130E-01  0.93401556239E+01  0.93406550352E+01  0.81142847857E-01 0.  0.
       11    1    1    2    0    0  0.53162593994E-01 -0.16132641118E-01  0.26587635056E+01  0.26593439347E+01  0.51109989000E-03 0.  1.
     -623    1    1    2    0    0 -0.51684857153E-02 -0.48867120116E-02  0.10808596855E-02  0.25126701030E+02  0.25126700000E+02 0.  1.
     -611    1    3    3    0    0 -0.14330224330E-01 -0.83136316378E-03  0.37860156327E+00  0.37900552793E+00  0.10000000000E-01 0.  1.
      611    1    3    3    0    0 -0.33663883949E-01  0.21850716294E-01  0.89615540606E+01  0.89616495073E+01  0.10000000000E-01 0.  1.
</event>
<event>
 7   0  0.6206631E-02  0.9118800E+02  0.7818608E-02  0.1180000E+00
       11   -1    0    0    0    0  0.00000000000E+00  0.00000000000E+00  0.11999999989E+02  0.12000000000E+02  0.51109989000E-03 0. -1.
     -623   -1    0    0    0    0  0.00000000000E+00  0.00000000000E+00  0.42561509872E-11  0.25126700000E+02  0.25126700000E+02 0.  1.
      622    2    1    2    0    0 -0.83824739130E-04 -0.86522388343E-02  0.10841698248E+02  0.10841992703E+02  0.79435553704E-01 0.  0.
       11    1    1    2    0    0  0.13514339877E-02 -0.55682921815E-03  0.11580045405E+01  0.11580055757E+01  0.51109989000E-03 0. -1.
     -623    1    1    2    0    0 -0.12676092486E-02  0.92090680524E-02  0.29720088629E-03  0.25126701721E+02  0.25126700000E+02 0.  1.
     -611    1    3    3    0    0 -0.13478752544E-01 -0.39974164955E-01  0.68171943923E+01  0.68173322490E+01  0.10000000000E-01 0. -1.
      611    1    3    3    0    0  0.13394927804E-01  0.31321926121E-01  0.40245038554E+01  0.40246604539E+01  0.10000000000E-01 0.  1.
</event>
<event>
 7   0  0.6206631E-02  0.9118800E+02  0.7818608E-02  0.1180000E+00
       11   -1    0    0    0    0  0.00000000000E+00  0.00000000000E+00  0.11999999989E+02  0.12000000000E+02  0.51109989000E-03 0. -1.
     -623   -1    0    0    0    0  0.00000000000E+00  0.00000000000E+00  0.42561509872E-11  0.25126700000E+02  0.25126700000E+02 0. -1.
      622    2    1    2    0    0 -0.64207951611E-02 -0.17125999386E-01  0.10441114879E+02  0.10441596265E+02  0.98580560763E-01 0.  0.
       11    1    1    2    0    0  0.17401340247E-01  0.42095251771E-02  0.15582950832E+01  0.15583980089E+01  0.51109989000E-03 0. -1.
     -623    1    1    2    0    0 -0.10980545086E-01  0.12916474209E-01  0.59002737731E-03  0.25126705726E+02  0.25126700000E+02 0. -1.
     -611    1    3    3    0    0 -0.17189441210E-01 -0.31759914792E-01  0.99175489209E+01  0.99176197128E+01  0.10000000000E-01 0. -1.
      611    1    3    3    0    0  0.10768646049E-01  0.14633915407E-01  0.52356595766E+00  0.52397655218E+00  0.10000000000E-01 0.  1.
</event>
<event>
 7   0  0.6206631E-02  0.9118800E+02  0.7818608E-02  0.1180000E+00
       11   -1    0    0    0    0  0.00000000000E+00  0.00000000000E+00  0.11999999989E+02  0.12000000000E+02  0.51109989000E-03 0.  1.
     -623   -1    0    0    0    0  0.00000000000E+00  0.00000000000E+00  0.42561509872E-11  0.25126700000E+02  0.25126700000E+02 0.  1.
      622    2    1    2    0    0 -0.59932704508E-02  0.29026188748E-01  0.10072869811E+02  0.10073539934E+02  0.11234829708E+00 0.  0.
       11    1    1    2    0    0  0.87776489965E-02 -0.28496598966E-01  0.19262290475E+01  0.19264598900E+01  0.51109989000E-03 0.  1.
     -623    1    1    2    0    0 -0.27843785457E-02 -0.52958978215E-03  0.90113098247E-03  0.25126700176E+02  0.25126700000E+02 0.  1.
     -611    1    3    3    0    0  0.46090560074E-01 -0.35169112541E-02  0.27578914705E+01  0.27582969513E+01  0.10000000000E-01 0. -1.
      611    1    3    3    0    0 -0.52083830525E-01  0.32543100003E-01  0.73149783402E+01  0.73152429827E+01  0.10000000000E-01 0.  1.
</event>
<event>
 7   0  0.6206631E-02  0.9118800E+02  0.7818608E-02  0.1180000E+00
       11   -1    0    0    0    0  0.00000000000E+00  0.00000000000E+00  0.11999999989E+02  0.12000000000E+02  0.51109989000E-03 0.  1.
     -623   -1    0    0    0    0  0.00000000000E+00  0.00000000000E+00  0.42561509872E-11  0.25126700000E+02  0.25126700000E+02 0.  1.
      622    2    1    2    0    0  0.35389756746E-02 -0.15768047980E-02  0.11860857059E+02  0.11861358146E+02  0.10895823849E+00 0.  0.
       11    1    1    2    0    0  0.43685210255E-02  0.65622085509E-02  0.13841485000E+00  0.13864010415E+00  0.51109989000E-03 0.  1.
     -623    1    1    2    0    0 -0.79074967001E-02 -0.49854037530E-02  0.72808028987E-03  0.25126701749E+02  0.25126700000E+02 0.  1.
     -611    1    3    3    0    0  0.37712239611E-01  0.14339316122E-03  0.17361753470E+01  0.17366136788E+01  0.10000000000E-01 0. -1.
      611    1    3    3    0    0 -0.34173263936E-01 -0.17201979592E-02  0.10124681712E+02  0.10124744468E+02  0.10000000000E-01 0.  1.
</event>
<event>
 7   0  0.6206631E-02  0.9118800E+02  0.7818608E-02  0.1180000E+00
       11   -1    0    0    0    0  0.00000000000E+00  0.00000000000E+00  0.11999999989E+02  0.12000000000E+02  0.51109989000E-03 0.  1.
     -623   -1    0    0    0    0  0.00000000000E+00  0.00000000000E+00  0.42561509872E-11  0.25126700000E+02  0.25126700000E+02 0.  1.
      622    2    1    2    0    0 -0.78063396065E-03  0.81687778075E-02  0.11829557312E+02  0.11830270664E+02  0.12965505057E+00 0.  0.
       11    1    1    2    0    0  0.19155749337E-02 -0.82711176139E-02  0.16951604944E+00  0.16972929345E+00  0.51109989000E-03 0.  1.
     -623    1    1    2    0    0 -0.11349409730E-02  0.10233980632E-03  0.92662741546E-03  0.25126700043E+02  0.25126700000E+02 0.  1.
     -611    1    3    3    0    0 -0.45524208671E-01 -0.27989422288E-01  0.86922956160E+01  0.86924656420E+01  0.10000000000E-01 0.  1.
      611    1    3    3    0    0  0.44743574711E-01  0.36158200096E-01  0.31372616963E+01  0.31378050216E+01  0.10000000000E-01 0. -1.
</event>
<event>
 7   0  0.6206631E-02  0.9118800E+02  0.7818608E-02  0.1180000E+00
       11   -1    0    0    0    0  0.00000000000E+00  0.00000000000E+00  0.11999999989E+02  0.12000000000E+02  0.51109989000E-03 0. -1.
     -623   -1    0    0    0    0  0.00000000000E+00  0.00000000000E+00  0.42561509872E-11  0.25126700000E+02  0.25126700000E+02 0.  1.
      622    2    1    2    0    0  0.23542267016E-01  0.33028552607E-01  0.72977719654E+01  0.72983637116E+01  0.83618684372E-01 0.  0.
       11    1    1    2    0    0 -0.17152911946E-01 -0.36524006175E-01  0.47014620350E+01  0.47016352212E+01  0.51109989000E-03 0. -1.
     -623    1    1    2    0    0 -0.63893550698E-02  0.34954535675E-02  0.76598869494E-03  0.25126701067E+02  0.25126700000E+02 0.  1.
     -611    1    3    3    0    0  0.12714103133E-01  0.54851814105E-01  0.32278370283E+01  0.32283435770E+01  0.10000000000E-01 0. -1.
      611    1    3    3    0    0  0.10828163883E-01 -0.21823261498E-01  0.40699349371E+01  0.40700201346E+01  0.10000000000E-01 0.  1.
</event>
<event>
 7   0  0.6206631E-02  0.9118800E+02  0.7818608E-02  0.1180000E+00
       11   -1    0    0    0    0  0.00000000000E+00  0.00000000000E+00  0.11999999989E+02  0.12000000000E+02  0.51109989000E-03 0. -1.
     -623   -1    0    0    0    0  0.00000000000E+00  0.00000000000E+00  0.42561509872E-11  0.25126700000E+02  0.25126700000E+02 0. -1.
      622    2    1    2    0    0  0.78903917258E-01  0.61493275530E-01  0.51804355753E+01  0.51831379399E+01  0.13415999195E+00 0.  0.
       11    1    1    2    0    0 -0.76450213324E-01 -0.73276268599E-01  0.68160363380E+01  0.68168589298E+01  0.51109989000E-03 0. -1.
     -623    1    1    2    0    0 -0.24537039335E-02  0.11782993069E-01  0.35280758279E-02  0.25126703130E+02  0.25126700000E+02 0. -1.
     -611    1    3    3    0    0  0.40612985074E-01  0.85452777972E-01  0.19037766354E+01  0.19061524255E+01  0.10000000000E-01 0.  1.
      611    1    3    3    0    0  0.38290932184E-01 -0.23959502442E-01  0.32766589399E+01  0.32769855144E+01  0.10000000000E-01 0. -1.
</event>
<event>
 7   0  0.6206631E-02  0.9118800E+02  0.7818608E-02  0.1180000E+00
       11   -1    0    0    0    0  0.00000000000E+00  0.00000000000E+00  0.11999999989E+02  0.12000000000E+02  0.51109989000E-03 0.  1.
     -623   -1    0    0    0    0  0.00000000000E+00  0.00000000000E+00  0.42561509872E-11  0.25126700000E+02  0.25126700000E+02 0.  1.
      622    2    1    2    0    0  0.16613602829E-02 -0.23508059878E-02  0.11984694777E+02  0.11985471404E+02  0.13640970045E+00 0.  0.
       11    1    1    2    0    0 -0.15226375457E-02 -0.28651843072E-03  0.14436546914E-01  0.14528442032E-01  0.51109989000E-03 0.  1.
     -623    1    1    2    0    0 -0.13872273727E-03  0.26373244185E-02  0.86866565043E-03  0.25126700154E+02  0.25126700000E+02 0.  1.
     -611    1    3    3    0    0  0.49504240179E-01  0.43896338105E-01  0.70569214649E+01  0.70572387037E+01  0.10000000000E-01 0. -1.
      611    1    3    3    0    0 -0.47842879896E-01 -0.46247144093E-01  0.49277733116E+01  0.49282327005E+01  0.10000000000E-01 0.  1.
</event>
<event>
 7   0  0.6206631E-02  0.9118800E+02  0.7818608E-02  0.1180000E+00
       11   -1    0    0    0    0  0.00000000000E+00  0.00000000000E+00  0.11999999989E+02  0.12000000000E+02  0.51109989000E-03 0. -1.
     -623   -1    0    0    0    0  0.00000000000E+00  0.00000000000E+00  0.42561509872E-11  0.25126700000E+02  0.25126700000E+02 0.  1.
      622    2    1    2    0    0  0.22625504806E-02  0.18281229185E-01  0.11083133358E+02  0.11083631908E+02  0.10349836332E+00 0.  0.
       11    1    1    2    0    0 -0.40975593132E-02 -0.17412227117E-01  0.91619325311E+00  0.91636800135E+00  0.51109989000E-03 0. -1.
     -623    1    1    2    0    0  0.18350088326E-02 -0.86900206808E-03  0.67337810172E-03  0.25126700091E+02  0.25126700000E+02 0.  1.
     -611    1    3    3    0    0 -0.41581458890E-01  0.10072152256E-01  0.25679676160E+01  0.25683434628E+01  0.10000000000E-01 0.  1.
      611    1    3    3    0    0  0.43844009370E-01  0.82090769292E-02  0.85151657419E+01  0.85152884448E+01  0.10000000000E-01 0. -1.
</event>
<event>
 7   0  0.6206631E-02  0.9118800E+02  0.7818608E-02  0.1180000E+00
       11   -1    0    0    0    0  0.00000000000E+00  0.00000000000E+00  0.11999999989E+02  0.12000000000E+02  0.51109989000E-03 0.  1.
     -623   -1    0    0    0    0  0.00000000000E+00  0.00000000000E+00  0.42561509872E-11  0.25126700000E+02  0.25126700000E+02 0.  1.
      622    2    1    2    0    0 -0.52436460152E-01 -0.26495387918E-02  0.11754001777E+02  0.11754526053E+02  0.97818007325E-01 0.  0.
       11    1    1    2    0    0  0.38696884107E-01 -0.10935739966E-01  0.24214947102E+00  0.24546622331E+00  0.51109989000E-03 0.  1.
     -623    1    1    2    0    0  0.13739576045E-01  0.13585278757E-01  0.38487415783E-02  0.25126707724E+02  0.25126700000E+02 0.  1.
     -611    1    3    3    0    0 -0.52967449278E-01 -0.40405944118E-02  0.11625986084E+02  0.11626111745E+02  0.10000000000E-01 0.  1.
      611    1    3    3    0    0  0.53098912557E-03  0.13910556201E-02  0.12801569279E+00  0.12841430833E+00  0.10000000000E-01 0.  1.
</event>
<event>
 7   0  0.6206631E-02  0.9118800E+02  0.7818608E-02  0.1180000E+00
       11   -1    0    0    0    0  0.00000000000E+00  0.00000000000E+00  0.11999999989E+02  0.12000000000E+02  0.51109989000E-03 0.  1.
     -623   -1    0    0    0    0  0.00000000000E+00  0.00000000000E+00  0.42561509872E-11  0.25126700000E+02  0.25126700000E+02 0.  1.
      622    2    1    2    0    0  0.35481728468E-02 -0.35700181988E-02  0.11798988138E+02  0.11799327723E+02  0.89377243967E-01 0.  0.
       11    1    1    2    0    0 -0.45094176973E-02  0.45511813912E-02  0.20056928222E+00  0.20067223598E+00  0.51109989000E-03 0.  1.
     -623    1    1    2    0    0  0.96124485057E-03 -0.98116319242E-03  0.44256899111E-03  0.25126700041E+02  0.25126700000E+02 0.  1.
     -611    1    3    3    0    0  0.19820097869E-01 -0.57155296601E-03  0.76407919115E+00  0.76440184020E+00  0.10000000000E-01 0. -1.
      611    1    3    3    0    0 -0.16271925022E-01 -0.29984652328E-02  0.11034908947E+02  0.11034925882E+02  0.10000000000E-01 0.  1.
</event>
<event>
 7   0  0.6206631E-02  0.9118800E+02  0.7818608E-02  0.1180000E+00
       11   -1    0    0    0    0  0.00000000000E+00  0.00000000000E+00  0.11999999989E+02  0.12000000000E+02  0.51109989000E-03 0. -1.
     -623   -1    0    0    0    0  0.00000000000E+00  0.00000000000E+00  0.42561509872E-11  0.25126700000E+02  0.25126700000E+02 0. -1.
      622    2    1    2    0    0  0.20744666787E-01 -0.12491655978E-01  0.11162916165E+02  0.11163385136E+02  0.99418339047E-01 0.  0.
       11    1    1    2    0    0 -0.39857178926E-01 -0.15224025120E-01  0.83550343010E+00  0.83659225946E+00  0.51109989000E-03 0. -1.
     -623    1    1    2    0    0  0.19112512139E-01  0.27715681098E-01  0.15803938468E-02  0.25126722604E+02  0.25126700000E+02 0. -1.
     -611    1    3    3    0    0  0.58467231142E-01  0.50501836109E-02  0.65604931395E+01  0.65607632296E+01  0.10000000000E-01 0. -1.
      611    1    3    3    0    0 -0.37722564355E-01 -0.17541839589E-01  0.46024230257E+01  0.46026219066E+01  0.10000000000E-01 0.  1.
</event>
<event>
 7   0  0.6206631E-02  0.9118800E+02  0.7818608E-02  0.1180000E+00
       11   -1    0    0    0    0  0.00000000000E+00  0.00000000000E+00  0.11999999989E+02  0.12000000000E+02  0.51109989000E-03 0. -1.
     -623   -1    0    0    0    0  0.00000000000E+00  0.00000000000E+00  0.42561509872E-11  0.25126700000E+02  0.25126700000E+02 0.  1.
      622    2    1    2    0    0 -0.77220018985E-01  0.28417449250E-01  0.28083895801E+01  0.28112355020E+01  0.96034009813E-01 0.  0.
       11    1    1    2    0    0  0.65098751356E-01 -0.12759122328E-01  0.91885170297E+01  0.91887565050E+01  0.51109989000E-03 0. -1.
     -623    1    1    2    0    0  0.12121267629E-01 -0.15658326922E-01  0.30933793452E-02  0.25126707993E+02  0.25126700000E+02 0.  1.
     -611    1    3    3    0    0 -0.40249602321E-01 -0.33685129119E-01  0.11407981462E+01  0.11420486543E+01  0.10000000000E-01 0.  1.
      611    1    3    3    0    0 -0.36970416665E-01  0.62102578369E-01  0.16675914339E+01  0.16691868477E+01  0.10000000000E-01 0. -1.
</event>
<event>
 7   0  0.6206631E-02  0.9118800E+02  0.7818608E-02  0.1180000E+00
       11   -1    0    0    0    0  0.00000000000E+00  0.00000000000E+00  0.11999999989E+02  0.12000000000E+02  0.51109989000E-03 0. -1.
     -623   -1    0    0    0    0  0.00000000000E+00  0.00000000000E+00  0.42561509872E-11  0.25126700000E+02  0.25126700000E+02 0.  1.
      622    2    1    2    0    0 -0.31880237600E-01 -0.28370889334E-02  0.11696658121E+02  0.11696937161E+02  0.74184527862E-01 0.  0.
       11    1    1    2    0    0  0.21393125417E-01 -0.13653729486E-01  0.30199023918E+00  0.30305520277E+00  0.51109989000E-03 0. -1.
     -623    1    1    2    0    0  0.10487112182E-01  0.16490818420E-01  0.13516288221E-02  0.25126707636E+02  0.25126700000E+02 0.  1.
     -611    1    3    3    0    0 -0.27163128957E-01  0.23674438721E-01  0.97036300729E+01  0.97037021237E+01  0.10000000000E-01 0. -1.
      611    1    3    3    0    0 -0.47171086426E-02 -0.26511527654E-01  0.19930280482E+01  0.19932350371E+01  0.10000000000E-01 0.  1.
</event>
<event>
 7   0  0.6206631E-02  0.9118800E+02  0.7818608E-02  0.1180000E+00
       11   -1    0    0    0    0  0.00000000000E+00  0.00000000000E+00  0.11999999989E+02  0.12000000000E+02  0.51109989000E-03 0.  1.
     -623   -1    0    0    0    0  0.00000000000E+00  0.00000000000E+00  0.42561509872E-11  0.25126700000E+02  0.25126700000E+02 0. -1.
      622    2    1    2    0    0  0.53040139316E-02  0.11561013607E-01  0.11875287579E+02  0.11875736110E+02  0.10242701425E+00 0.  0.
       11    1    1    2    0    0 -0.13178309325E-01  0.47884682588E-03  0.12355697383E+00  0.12425974463E+00  0.51109989000E-03 0.  1.
     -623    1    1    2    0    0  0.78742953929E-02 -0.12039860433E-01  0.11554363953E-02  0.25126704145E+02  0.25126700000E+02 0. -1.
     -611    1    3    3    0    0  0.40094567785E-01 -0.26850945159E-01  0.66227472837E+01  0.66229306301E+01  0.10000000000E-01 0. -1.
      611    1    3    3    0    0 -0.34790553854E-01  0.38411958766E-01  0.52525402952E+01  0.52528054803E+01  0.10000000000E-01 0.  1.
</event>
<event>
 7   0  0.6206631E-02  0.9118800E+02  0.7818608E-02  0.1180000E+00
       11   -1    0    0    0    0  0.00000000000E+00  0.00000000000E+00  0.11999999989E+02  0.12000000000E+02  0.51109989000E-03 0. -1.
     -623   -1    0    0    0    0  0.00000000000E+00  0.00000000000E+00  0.42561509872E-11  0.25126700000E+02  0.25126700000E+02 0.  1.
      622    2    1    2    0    0  0.10151199648E-01 -0.54107269398E-02  0.11982587078E+02  0.11983143500E+02  0.11490316219E+00 0.  0.
       11    1    1    2    0    0  0.41832786590E-02 -0.90438162770E-02  0.13575791636E-01  0.16847960555E-01  0.51109989000E-03 0. -1.
     -623    1    1    2    0    0 -0.14334478307E-01  0.14454543217E-01  0.38371194413E-02  0.25126708539E+02  0.25126700000E+02 0.  1.
     -611    1    3    3    0    0  0.10258559311E-01 -0.57952129231E-01  0.74943545531E+01  0.74945923075E+01  0.10000000000E-01 0.  1.
      611    1    3    3    0    0 -0.10735966300E-03  0.52541402291E-01  0.44882325249E+01  0.44885511926E+01  0.10000000000E-01 0. -1.
</event>
<event>
 7   0  0.6206631E-02  0.9118800E+02  0.7818608E-02  0.1180000E+00
       11   -1    0    0    0    0  0.00000000000E+00  0.00000000000E+00  0.11999999989E+02  0.12000000000E+02  0.51109989000E-03 0. -1.
     -623   -1    0    0    0    0  0.00000000000E+00  0.00000000000E+00  0.42561509872E-11  0.25126700000E+02  0.25126700000E+02 0.  1.
      622    2    1    2    0    0 -0.70751057944E-03 -0.99959794169E-03  0.11984085175E+02  0.11984676423E+02  0.11903770643E+00 0.  0.
       11    1    1    2    0    0  0.62229080819E-02  0.13748781181E-01  0.25633742345E-02  0.15316190113E-01  0.51109989000E-03 0.  1.
     -623    1    1    2    0    0 -0.55153975025E-02 -0.12749183240E-01  0.13351439711E-01  0.25126707387E+02  0.25126700000E+02 0.  1.
     -611    1    3    3    0    0  0.16191211859E-01 -0.44287315358E-02  0.11638779957E+02  0.11638796358E+02  0.10000000000E-01 0. -1.
      611    1    3    3    0    0 -0.16898722438E-01  0.34291335941E-02  0.34530521810E+00  0.34588006509E+00  0.10000000000E-01 0.  1.
</event>
<event>
 7   0  0.6206631E-02  0.9118800E+02  0.7818608E-02  0.1180000E+00
       11   -1    0    0    0    0  0.00000000000E+00  0.00000000000E+00  0.11999999989E+02  0.12000000000E+02  0.51109989000E-03 0. -1.
     -623   -1    0    0    0    0  0.00000000000E+00  0.00000000000E+00  0.42561509872E-11  0.25126700000E+02  0.25126700000E+02 0. -1.
      622    2    1    2    0    0  0.85975326650E-02 -0.34107845299E-01  0.10347393511E+02  0.10347730600E+02  0.75755088086E-01 0.  0.
       11    1    1    2    0    0 -0.96698112070E-02  0.36114173563E-01  0.16518461765E+01  0.16522692852E+01  0.51109989000E-03 0. -1.
     -623    1    1    2    0    0  0.10722785420E-02 -0.20063282638E-02  0.76030117787E-03  0.25126700114E+02  0.25126700000E+02 0. -1.
     -611    1    3    3    0    0  0.10884245497E-01 -0.24823543378E-02  0.39879746368E+00  0.39907899709E+00  0.10000000000E-01 0. -1.
      611    1    3    3    0    0 -0.22867128323E-02 -0.31625490961E-01  0.99485960477E+01  0.99486516032E+01  0.10000000000E-01 0. -1.
</event>
<event>
 7   0  0.6206631E-02  0.9118800E+02  0.7818608E-02  0.1180000E+00
       11   -1    0    0    0    0  0.00000000000E+00  0.00000000000E+00  0.11999999989E+02  0.12000000000E+02  0.51109989000E-03 0. -1.
     -623   -1    0    0    0    0  0.00000000000E+00  0.00000000000E+00  0.42561509872E-11  0.25126700000E+02  0.25126700000E+02 0. -1.
      622    2    1    2    0    0 -0.30688089270E-02 -0.61805443747E-02  0.11490912467E+02  0.11491406149E+02  0.10629365270E+00 0.  0.
       11    1    1    2    0    0  0.34674435383E-02  0.58952588593E-02  0.50854759421E+00  0.50859383995E+00  0.51109989000E-03 0. -1.
     -623    1    1    2    0    0 -0.39863461124E-03  0.28528551540E-03  0.53992746227E-03  0.25126700011E+02  0.25126700000E+02 0. -1.
     -611    1    3    3    0    0 -0.45174662717E-01  0.15757938545E-01  0.80891935691E+01  0.80893412378E+01  0.10000000000E-01 0. -1.
      611    1    3    3    0    0  0.42105853790E-01 -0.21938482920E-01  0.34017188984E+01  0.34020649117E+01  0.10000000000E-01 0.  1.
</event>
<event>
 7   0  0.6206631E-02  0.9118800E+02  0.7818608E-02  0.1180000E+00
       11   -1    0    0    0    0  0.00000000000E+00  0.00000000000E+00  0.11999999989E+02  0.12000000000E+02  0.51109989000E-03 0. -1.
     -623   -1    0    0    0    0  0.00000000000E+00  0.00000000000E+00  0.42561509872E-11  0.25126700000E+02  0.25126700000E+02 0.  1.
      622    2    1    2    0    0 -0.74323545833E-01 -0.93399139223E-01  0.10854650771E+02  0.10855858862E+02  0.10945715953E+00 0.  0.
       11    1    1    2    0    0  0.98599249632E-01  0.10332663613E+00  0.11351759525E+01  0.11441253909E+01  0.51109989000E-03 0. -1.
     -623    1    1    2    0    0 -0.24275703798E-01 -0.99274969071E-02  0.10173265329E-01  0.25126715747E+02  0.25126700000E+02 0.  1.
     -611    1    3    3    0    0 -0.42932181946E-01 -0.11774747298E-01  0.12961865421E+01  0.12969893480E+01  0.10000000000E-01 0. -1.
      611    1    3    3    0    0 -0.31391363888E-01 -0.81624391925E-01  0.95584642292E+01  0.95588695137E+01  0.10000000000E-01 0. -1.
</event>
<event>
 7   0  0.6206631E-02  0.9118800E+02  0.7818608E-02  0.1180000E+00
       11   -1    0    0    0    0  0.00000000000E+00  0.00000000000E+00  0.11999999989E+02  0.12000000000E+02  0.51109989000E-03 0. -1.
     -623   -1    0    0    0    0  0.00000000000E+00  0.00000000000E+00  0.42561509872E-11  0.25126700000E+02  0.25126700000E+02 0.  1.
      622    2    1    2    0    0  0.78518099831E-03  0.77670934792E-03  0.11953267115E+02  0.11953487350E+02  0.72552746597E-01 0.  0.
       11    1    1    2    0    0 -0.42931073434E-03 -0.51254689993E-03  0.46505030531E-01  0.46512644516E-01  0.51109989000E-03 0. -1.
     -623    1    1    2    0    0 -0.35587026397E-03 -0.26416244800E-03  0.22784374758E-03  0.25126700005E+02  0.25126700000E+02 0.  1.
     -611    1    3    3    0    0 -0.11913312416E-01  0.94546365511E-02  0.11133923222E+02  0.11133938101E+02  0.10000000000E-01 0. -1.
      611    1    3    3    0    0  0.12698493414E-01 -0.86779272031E-02  0.81934389230E+00  0.81954924928E+00  0.10000000000E-01 0. -1.
</event>
<event>
 7   0  0.6206631E-02  0.9118800E+02  0.7818608E-02  0.1180000E+00
       11   -1    0    0    0    0  0.00000000000E+00  0.00000000000E+00  0.11999999989E+02  0.12000000000E+02  0.51109989000E-03 0.  1.
     -623   -1    0    0    0    0  0.00000000000E+00  0.00000000000E+00  0.42561509872E-11  0.25126700000E+02  0.25126700000E+02 0. -1.
      622    2    1    2    0    0  0.19653889080E-02 -0.33846456601E-01  0.11380869265E+02  0.11381888159E+02  0.14847016124E+00 0.  0.
       11    1    1    2    0    0 -0.11822974469E-02  0.31319126124E-01  0.61731632704E+00  0.61811163582E+00  0.51109989000E-03 0.  1.
     -623    1    1    2    0    0 -0.78309146114E-03  0.25273304774E-02  0.18143965965E-02  0.25126700205E+02  0.25126700000E+02 0. -1.
     -611    1    3    3    0    0 -0.49946822061E-01 -0.65838043944E-01  0.81721912834E+01  0.81726152305E+01  0.10000000000E-01 0.  1.
      611    1    3    3    0    0  0.51912210969E-01  0.31991587343E-01  0.32086779821E+01  0.32092729289E+01  0.10000000000E-01 0. -1.
</event>
<event>
 7   0  0.6206631E-02  0.9118800E+02  0.7818608E-02  0.1180000E+00
       11   -1    0    0    0    0  0.00000000000E+00  0.00000000000E+00  0.11999999989E+02  0.12000000000E+02  0.51109989000E-03 0. -1.
     -623   -1    0    0    0    0  0.00000000000E+00  0.00000000000E+00  0.42561509872E-11  0.25126700000E+02  0.25126700000E+02 0.  1.
      622    2    1    2    0    0  0.60716019933E-02  0.24549953723E-01  0.93809939338E+01  0.93814908612E+01  0.93188131931E-01 0.  0.
       11    1    1    2    0    0 -0.18969917540E-01 -0.18110768127E-01  0.26183735965E+01  0.26185049952E+01  0.51109989000E-03 0. -1.
     -623    1    1    2    0    0  0.12898315546E-01 -0.64391855956E-02  0.63245877505E-03  0.25126704144E+02  0.25126700000E+02 0.  1.
     -611    1    3    3    0    0  0.20377439606E-01  0.52834070117E-01  0.42460281146E+01  0.42464174818E+01  0.10000000000E-01 0. -1.
      611    1    3    3    0    0 -0.14305837613E-01 -0.28284116394E-01  0.51349658191E+01  0.51350733794E+01  0.10000000000E-01 0.  1.
</event>
<event>
 7   0  0.6206631E-02  0.9118800E+02  0.7818608E-02  0.1180000E+00
       11   -1    0    0    0    0  0.00000000000E+00  0.00000000000E+00  0.11999999989E+02  0.12000000000E+02  0.51109989000E-03 0.  1.
     -623   -1    0    0    0    0  0.00000000000E+00  0.00000000000E+00  0.42561509872E-11  0.25126700000E+02  0.25126700000E+02 0.  1.
      622    2    1    2    0    0 -0.13267875818E-02  0.97926435957E-03  0.11993298296E+02  0.11993390587E+02  0.47021542895E-01 0.  0.
       11    1    1    2    0    0  0.36645106355E-03 -0.23258038381E-02  0.61545655035E-02  0.66093531868E-02  0.51109989000E-03 0.  1.
     -623    1    1    2    0    0  0.96033651824E-03  0.13465394785E-02  0.54712774710E-03  0.25126700060E+02  0.25126700000E+02 0.  1.
     -611    1    3    3    0    0 -0.19562896883E-01 -0.64308545477E-02  0.43330058477E+01  0.43330663206E+01  0.10000000000E-01 0. -1.
      611    1    3    3    0    0  0.18236109301E-01  0.74101189072E-02  0.76602924484E+01  0.76603242660E+01  0.10000000000E-01 0.  1.
</event>
<event>
 7   0  0.6206631E-02  0.9118800E+02  0.7818608E-02  0.1180000E+00
       11   -1    0    0    0    0  0.00000000000E+00  0.00000000000E+00  0.11999999989E+02  0.12000000000E+02  0.51109989000E-03 0.  1.
     -623   -1    0    0    0    0  0.00000000000E+00  0.00000000000E+00  0.42561509872E-11  0.25126700000E+02  0.25126700000E+02 0. -1.
      622    2    1    2    0    0 -0.75498379496E-03 -0.48183341930E-02  0.11936072616E+02  0.11936570258E+02  0.10888630677E+00 0.  0.
       11    1    1    2    0    0 -0.77641643247E-02  0.24729587832E-01  0.57878838359E-01  0.63419680817E-01  0.51109989000E-03 0.  1.
     -623    1    1    2    0    0  0.85191481197E-02 -0.19911253639E-01  0.60485343047E-02  0.25126710061E+02  0.25126700000E+02 0. -1.
     -611    1    3    3    0    0  0.10934243059E-01 -0.28003649286E-01  0.11080544324E+02  0.11080589618E+02  0.10000000000E-01 0.  1.
      611    1    3    3    0    0 -0.11689226854E-01  0.23185315093E-01  0.85552829211E+00  0.85598063965E+00  0.10000000000E-01 0.  1.
</event>
<event>
 7   0  0.6206631E-02  0.9118800E+02  0.7818608E-02  0.1180000E+00
       11   -1    0    0    0    0  0.00000000000E+00  0.00000000000E+00  0.11999999989E+02  0.12000000000E+02  0.51109989000E-03 0.  1.
     -623   -1    0    0    0    0  0.00000000000E+00  0.00000000000E+00  0.42561509872E-11  0.25126700000E+02  0.25126700000E+02 0.  1.
      622    2    1    2    0    0 -0.77967553154E-03  0.27868937393E-03  0.11996447269E+02  0.11996748783E+02  0.85050572182E-01 0.  0.
       11    1    1    2    0    0 -0.61817386901E-04 -0.99632621621E-03  0.30516404985E-02  0.32511875073E-02  0.51109989000E-03 0.  1.
     -623    1    1    2    0    0  0.84149291844E-03  0.71763684228E-03  0.50107950054E-03  0.25126700029E+02  0.25126700000E+02 0.  1.
     -611    1    3    3    0    0 -0.40651494585E-01  0.63117937294E-02  0.70450015599E+01  0.70451287683E+01  0.10000000000E-01 0. -1.
      611    1    3    3    0    0  0.39871819053E-01 -0.60331043555E-02  0.49514457092E+01  0.49516200148E+01  0.10000000000E-01 0.  1.
</event>
<event>
 7   0  0.6206631E-02  0.9118800E+02  0.7818608E-02  0.1180000E+00
       11   -1    0    0    0    0  0.00000000000E+00  0.00000000000E+00  0.11999999989E+02  0.12000000000E+02  0.51109989000E-03 0. -1.
     -623   -1    0    0    0    0  0.00000000000E+00  0.00000000000E+00  0.42561509872E-11  0.25126700000E+02  0.25126700000E+02 0. -1.
      622    2    1    2    0    0  0.33720013242E-02 -0.32739568980E-02  0.11991468018E+02  0.11992518301E+02  0.15864390229E+00 0.  0.
       11    1    1    2    0    0 -0.26275704021E-02  0.40145047576E-02  0.57176512880E-02  0.74815195005E-02  0.51109989000E-03 0. -1.
     -623    1    1    2    0    0 -0.74443092210E-03 -0.74054785958E-03  0.28143200413E-02  0.25126700180E+02  0.25126700000E+02 0. -1.
     -611    1    3    3    0    0  0.66977199283E-01  0.42280759813E-01  0.60852631042E+01  0.60857867737E+01  0.10000000000E-01 0.  1.
      611    1    3    3    0    0 -0.63605197959E-01 -0.45554716712E-01  0.59062049136E+01  0.59067315272E+01  0.10000000000E-01 0. -1.
</event>
<event>
 7   0  0.6206631E-02  0.9118800E+02  0.7818608E-02  0.1180000E+00
       11   -1    0    0    0    0  0.00000000000E+00  0.00000000000E+00  0.11999999989E+02  0.12000000000E+02  0.51109989000E-03 0. -1.
     -623   -1    0    0    0    0  0.00000000000E+00  0.00000000000E+00  0.42561509872E-11  0.25126700000E+02  0.25126700000E+02 0. -1.
      622    2    1    2    0    0 -0.83370187605E-02  0.19941340327E-01  0.11184652660E+02  0.11185134756E+02  0.10157371932E+00 0.  0.
       11    1    1    2    0    0 -0.93448428659E-03  0.36875043666E-02  0.81484337846E+00  0.81485241829E+00  0.51109989000E-03 0. -1.
     -623    1    1    2    0    0  0.92715030471E-02 -0.23628844694E-01  0.50395061284E-03  0.25126712826E+02  0.25126700000E+02 0. -1.
     -611    1    3    3    0    0 -0.47821335056E-01  0.32996838881E-01  0.75567457082E+01  0.75569756761E+01  0.10000000000E-01 0. -1.
      611    1    3    3    0    0  0.39484316296E-01 -0.13055498554E-01  0.36279069519E+01  0.36281590799E+01  0.10000000000E-01 0.  1.
</event>
<event>
 7   0  0.6206631E-02  0.9118800E+02  0.7818608E-02  0.1180000E+00
       11   -1    0    0    0    0  0.00000000000E+00  0.00000000000E+00  0.11999999989E+02  0.12000000000E+02  0.51109989000E-03 0. -1.
     -623   -1    0    0    0    0  0.00000000000E+00  0.00000000000E+00  0.42561509872E-11  0.25126700000E+02  0.25126700000E+02 0. -1.
      622    2    1    2    0    0 -0.36328417911E-03 -0.14406718947E-02  0.11986297217E+02  0.11986736269E+02  0.10258261700E+00 0.  0.
       11    1    1    2    0    0  0.22120893292E-02 -0.25464810836E-02  0.12817052462E-01  0.13263331484E-01  0.51109989000E-03 0. -1.
     -623    1    1    2    0    0 -0.18488051501E-02  0.39871529783E-02  0.88571980222E-03  0.25126700400E+02  0.25126700000E+02 0. -1.
     -611    1    3    3    0    0  0.40183196637E-01 -0.10449483333E-01  0.26736925588E+01  0.26740336161E+01  0.10000000000E-01 0.  1.
      611    1    3    3    0    0 -0.40546480816E-01  0.90088114384E-02  0.93126046580E+01  0.93127026524E+01  0.10000000000E-01 0. -1.
</event>
<event>
 7   0  0.6206631E-02  0.9118800E+02  0.7818608E-02  0.1180000E+00
       11   -1    0    0    0    0  0.00000000000E+00  0.00000000000E+00  0.11999999989E+02  0.12000000000E+02  0.51109989000E-03 0. -1.
     -623   -1    0    0    0    0  0.00000000000E+00  0.00000000000E+00  0.42561509872E-11  0.25126700000E+02  0.25126700000E+02 0.  1.
      622    2    1    2    0    0  0.27965141549E-01 -0.13338867364E+00  0.40468961390E+01  0.40502522130E+01  0.92736408460E-01 0.  0.
       11    1    1    2    0    0 -0.39943138657E-01  0.12769937555E+00  0.79486178063E+01  0.79497438874E+01  0.51109989000E-03 0. -1.
     -623    1    1    2    0    0  0.11977997107E-01  0.56892980966E-02  0.44860438243E-02  0.25126703900E+02  0.25126700000E+02 0.  1.
     -611    1    3    3    0    0 -0.31479547176E-01 -0.27572758426E-01  0.10176877465E+01  0.10185968625E+01  0.10000000000E-01 0. -1.
      611    1    3    3    0    0  0.59444688726E-01 -0.10581591522E+00  0.30292083926E+01  0.30316553505E+01  0.10000000000E-01 0.  1.
</event>
<event>
 7   0  0.6206631E-02  0.9118800E+02  0.7818608E-02  0.1180000E+00
       11   -1    0    0    0    0  0.00000000000E+00  0.00000000000E+00  0.11999999989E+02  0.12000000000E+02  0.51109989000E-03 0.  1.
     -623   -1    0    0    0    0  0.00000000000E+00  0.00000000000E+00  0.42561509872E-11  0.25126700000E+02  0.25126700000E+02 0.  1.
      622    2    1    2    0    0 -0.46244257464E-01  0.18435488597E-01  0.98528405482E+01  0.98534104018E+01  0.93548277396E-01 0.  0.
       11    1    1    2    0    0  0.79311223670E-01  0.20974864539E-01  0.21449685123E+01  0.21465368376E+01  0.51109989000E-03 0.  1.
     -623    1    1    2    0    0 -0.33066966206E-01 -0.39410353135E-01  0.21909286071E-02  0.25126752761E+02  0.25126700000E+02 0.  1.
     -611    1    3    3    0    0 -0.40968067805E-01  0.70658931089E-02  0.16492759540E+01  0.16498301373E+01  0.10000000000E-01 0. -1.
      611    1    3    3    0    0 -0.52761896585E-02  0.11369595488E-01  0.82035645941E+01  0.82035802645E+01  0.10000000000E-01 0.  1.
</event>
<event>
 7   0  0.6206631E-02  0.9118800E+02  0.7818608E-02  0.1180000E+00
       11   -1    0    0    0    0  0.00000000000E+00  0.00000000000E+00  0.11999999989E+02  0.12000000000E+02  0.51109989000E-03 0. -1.
     -623   -1    0    0    0    0  0.00000000000E+00  0.00000000000E+00  0.42561509872E-11  0.25126700000E+02  0.25126700000E+02 0.  1.
      622    2    1    2    0    0  0.25522840915E-02  0.15990435040E-02  0.11931293218E+02  0.11931837028E+02  0.11387681867E+00 0.  0.
       11    1    1    2    0    0 -0.15761090232E-02 -0.23807000540E-02  0.68101192711E-01  0.68162933654E-01  0.51109989000E-03 0. -1.
     -623    1    1    2    0    0 -0.97617506833E-03  0.78165654999E-03  0.60557814778E-03  0.25126700038E+02  0.25126700000E+02 0.  1.
     -611    1    3    3    0    0 -0.51380053196E-01 -0.18379035379E-01  0.56154291738E+01  0.56157032066E+01  0.10000000000E-01 0. -1.
      611    1    3    3    0    0  0.53932337287E-01  0.19978078883E-01  0.63158640445E+01  0.63161338214E+01  0.10000000000E-01 0.  1.
</event>
<event>
 7   0  0.6206631E-02  0.9118800E+02  0.7818608E-02  0.1180000E+00
       11   -1    0    0    0    0  0.00000000000E+00  0.00000000000E+00  0.11999999989E+02  0.12000000000E+02  0.51109989000E-03 0. -1.
     -623   -1    0    0    0    0  0.00000000000E+00  0.00000000000E+00  0.42561509872E-11  0.25126700000E+02  0.25126700000E+02 0. -1.
      622    2    1    2    0    0 -0.65931081675E-02 -0.20593009936E-01  0.11589198502E+02  0.11590839399E+02  0.19382597903E+00 0.  0.
       11    1    1    2    0    0  0.14434705637E-01  0.92111577862E-02  0.40879793804E+00  0.40915672000E+00  0.51109989000E-03 0. -1.
     -623    1    1    2    0    0 -0.78415974692E-02  0.11381852150E-01  0.20035492948E-02  0.25126703881E+02  0.25126700000E+02 0. -1.
     -611    1    3    3    0    0  0.80118040908E-01  0.34837571939E-01  0.64629674006E+01  0.64635655933E+01  0.10000000000E-01 0. -1.
      611    1    3    3    0    0 -0.86711149075E-01 -0.55430581876E-01  0.51262311012E+01  0.51272738054E+01  0.10000000000E-01 0.  1.
</event>
<event>
 7   0  0.6206631E-02  0.9118800E+02  0.7818608E-02  0.1180000E+00
       11   -1    0    0    0    0  0.00000000000E+00  0.00000000000E+00  0.11999999989E+02  0.12000000000E+02  0.51109989000E-03 0.  1.
     -623   -1    0    0    0    0  0.00000000000E+00  0.00000000000E+00  0.42561509872E-11  0.25126700000E+02  0.25126700000E+02 0. -1.
      622    2    1    2    0    0  0.12248748174E-01 -0.24549841688E-01  0.11196735598E+02  0.11197198771E+02  0.98079266964E-01 0.  0.
       11    1    1    2    0    0 -0.25711295414E-01  0.25372975097E-01  0.80198430687E+00  0.80279757615E+00  0.51109989000E-03 0.  1.
     -623    1    1    2    0    0  0.13462547239E-01 -0.82313340809E-03  0.12800841631E-02  0.25126703653E+02  0.25126700000E+02 0. -1.
     -611    1    3    3    0    0  0.30157217277E-01 -0.20492391987E-02  0.12159826075E+01  0.12163993418E+01  0.10000000000E-01 0. -1.
      611    1    3    3    0    0 -0.17908469102E-01 -0.22500602490E-01  0.99807529906E+01  0.99807994294E+01  0.10000000000E-01 0.  1.
</event>
<event>
 7   0  0.6206631E-02  0.9118800E+02  0.7818608E-02  0.1180000E+00
       11   -1    0    0    0    0  0.00000000000E+00  0.00000000000E+00  0.11999999989E+02  0.12000000000E+02  0.51109989000E-03 0. -1.
     -623   -1    0    0    0    0  0.00000000000E+00  0.00000000000E+00  0.42561509872E-11  0.25126700000E+02  0.25126700000E+02 0.  1.
      622    2    1    2    0    0 -0.58030879753E-03  0.11205112686E-02  0.11981813445E+02  0.11981888886E+02  0.42500244713E-01 0.  0.
       11    1    1    2    0    0  0.73455675918E-03  0.11265653422E-02  0.18053775856E-01  0.18111012365E-01  0.51109989000E-03 0. -1.
     -623    1    1    2    0    0 -0.15424796165E-03 -0.22470766107E-02  0.13276865860E-03  0.25126700101E+02  0.25126700000E+02 0.  1.
     -611    1    3    3    0    0 -0.76615163626E-02  0.17787138002E-01  0.63949208477E+01  0.63949579928E+01  0.10000000000E-01 0. -1.
      611    1    3    3    0    0  0.70812075651E-02 -0.16666626734E-01  0.55868925968E+01  0.55869308934E+01  0.10000000000E-01 0.  1.
</event>
<event>
 7   0  0.6206631E-02  0.9118800E+02  0.7818608E-02  0.1180000E+00
       11   -1    0    0    0    0  0.00000000000E+00  0.00000000000E+00  0.11999999989E+02  0.12000000000E+02  0.51109989000E-03 0. -1.
     -623   -1    0    0    0    0  0.00000000000E+00  0.00000000000E+00  0.42561509872E-11  0.25126700000E+02  0.25126700000E+02 0. -1.
      622    2    1    2    0    0 -0.29104907964E-01 -0.13494194549E-01  0.11462342527E+02  0.11462937368E+02  0.11228397842E+00 0.  0.
       11    1    1    2    0    0  0.24882255016E-01  0.19147782125E-01  0.53614282816E+00  0.53706159571E+00  0.51109989000E-03 0. -1.
     -623    1    1    2    0    0  0.42226529482E-02 -0.56535875759E-02  0.15146334924E-02  0.25126701037E+02  0.25126700000E+02 0. -1.
     -611    1    3    3    0    0 -0.70125866322E-01 -0.20890158807E-01  0.70732966117E+01  0.70736821382E+01  0.10000000000E-01 0.  1.
      611    1    3    3    0    0  0.41020958358E-01  0.73959642577E-02  0.43890459158E+01  0.43892552296E+01  0.10000000000E-01 0. -1.
</event>
<event>
 7   0  0.6206631E-02  0.9118800E+02  0.7818608E-02  0.1180000E+00
       11   -1    0    0    0    0  0.00000000000E+00  0.00000000000E+00  0.11999999989E+02  0.12000000000E+02  0.51109989000E-03 0.  1.
     -623   -1    0    0    0    0  0.00000000000E+00  0.00000000000E+00  0.42561509872E-11  0.25126700000E+02  0.25126700000E+02 0. -1.
      622    2    1    2    0    0  0.23566767085E-02 -0.80782883736E-02  0.11954547200E+02  0.11954908900E+02  0.92613400918E-01 0.  0.
       11    1    1    2    0    0  0.26249898203E-02 -0.19628087912E-01  0.40488610245E-01  0.45074839871E-01  0.51109989000E-03 0.  1.
     -623    1    1    2    0    0 -0.49816665288E-02  0.27706376286E-01  0.49641785885E-02  0.25126716260E+02  0.25126700000E+02 0. -1.
     -611    1    3    3    0    0 -0.14199635417E-01  0.34130689992E-01  0.79556949445E+01  0.79557871127E+01  0.10000000000E-01 0.  1.
      611    1    3    3    0    0  0.16556312125E-01 -0.42208978366E-01  0.39988522558E+01  0.39991217877E+01  0.10000000000E-01 0.  1.
</event>
<event>
 7   0  0.6206631E-02  0.9118800E+02  0.7818608E-02  0.1180000E+00
       11   -1    0    0    0    0  0.00000000000E+00  0.00000000000E+00  0.11999999989E+02  0.12000000000E+02  0.51109989000E-03 0. -1.
     -623   -1    0    0    0    0  0.00000000000E+00  0.00000000000E+00  0.42561509872E-11  0.25126700000E+02  0.25126700000E+02 0.  1.
      622    2    1    2    0    0 -0.13759289253E-02  0.46271658306E-02  0.11977659412E+02  0.11978361765E+02  0.12962367366E+00 0.  0.
       11    1    1    2    0    0 -0.36133902765E-03 -0.31760833701E-02  0.21394595710E-01  0.21638114987E-01  0.51109989000E-03 0. -1.
     -623    1    1    2    0    0  0.17372679530E-02 -0.14510824605E-02  0.94598188331E-03  0.25126700120E+02  0.25126700000E+02 0.  1.
     -611    1    3    3    0    0  0.26752623001E-01  0.60137937491E-01  0.59068634480E+01  0.59072386161E+01  0.10000000000E-01 0.  1.
      611    1    3    3    0    0 -0.28128551927E-01 -0.55510771660E-01  0.60707959635E+01  0.60711231492E+01  0.10000000000E-01 0. -1.
</event>
<event>
 7   0  0.6206631E-02  0.9118800E+02  0.7818608E-02  0.1180000E+00
       11   -1    0    0    0    0  0.00000000000E+00  0.00000000000E+00  0.11999999989E+02  0.12000000000E+02  0.51109989000E-03 0.  1.
     -623   -1    0    0    0    0  0.00000000000E+00  0.00000000000E+00  0.42561509872E-11  0.25126700000E+02  0.25126700000E+02 0. -1.
      622    2    1    2    0    0  0.12771835380E-03  0.11667369719E-02  0.11999020014E+02  0.11999470764E+02  0.10399971223E+00 0.  0.
       11    1    1    2    0    0  0.46235999645E-04 -0.58122070276E-04  0.11536555952E-03  0.52919588709E-03  0.51109989000E-03 0. -1.
     -623    1    1    2    0    0 -0.17395435344E-03 -0.11086149016E-02  0.86460929909E-03  0.25126700040E+02  0.25126700000E+02 0. -1.
     -611    1    3    3    0    0 -0.43070907279E-01 -0.15739402624E-01  0.84920472317E+01  0.84921769304E+01  0.10000000000E-01 0.  1.
      611    1    3    3    0    0  0.43198625633E-01  0.16906139596E-01  0.35069727825E+01  0.35072938337E+01  0.10000000000E-01 0. -1.
</event>
<event>
 7   0  0.6206631E-02  0.9118800E+02  0.7818608E-02  0.1180000E+00
       11   -1    0    0    0    0  0.00000000000E+00  0.00000000000E+00  0.11999999989E+02  0.12000000000E+02  0.51109989000E-03 0.  1.
     -623   -1    0    0    0    0  0.00000000000E+00  0.00000000000E+00  0.42561509872E-11  0.25126700000E+02  0.25126700000E+02 0. -1.
      622    2    1    2    0    0 -0.53376751501E-02 -0.90030422583E-02  0.11278499619E+02  0.11278640719E+02  0.55436884381E-01 0.  0.
       11    1    1    2    0    0  0.44416254477E-02  0.94137320068E-02  0.72128397740E+00  0.72135926117E+00  0.51109989000E-03 0.  1.
     -623    1    1    2    0    0  0.89604970242E-03 -0.41068974860E-03  0.21639231335E-03  0.25126700020E+02  0.25126700000E+02 0. -1.
     -611    1    3    3    0    0  0.52022348063E-02  0.12275536604E-01  0.12873063012E+01  0.12874141777E+01  0.10000000000E-01 0. -1.
      611    1    3    3    0    0 -0.10539909956E-01 -0.21278578862E-01  0.99911933183E+01  0.99912265409E+01  0.10000000000E-01 0.  1.
</event>
<event>
 7   0  0.6206631E-02  0.9118800E+02  0.7818608E-02  0.1180000E+00
       11   -1    0    0    0    0  0.00000000000E+00  0.00000000000E+00  0.11999999989E+02  0.12000000000E+02  0.51109989000E-03 0. -1.
     -623   -1    0    0    0    0  0.00000000000E+00  0.00000000000E+00  0.42561509872E-11  0.25126700000E+02  0.25126700000E+02 0.  1.
      622    2    1    2    0    0  0.19918614292E+00  0.68511176169E-01  0.89425154523E+01  0.89459725539E+01  0.13218705878E+00 0.  0.
       11    1    1    2    0    0 -0.17533511574E+00 -0.53677025493E-01  0.30485002960E+01  0.30540101410E+01  0.51109989000E-03 0. -1.
     -623    1    1    2    0    0 -0.23851027188E-01 -0.14834150677E-01  0.89842408251E-02  0.25126717305E+02  0.25126700000E+02 0.  1.
     -611    1    3    3    0    0  0.19108408108E+00  0.18619999251E-01  0.62225237396E+01  0.62254928736E+01  0.10000000000E-01 0. -1.
      611    1    3    3    0    0  0.81020618460E-02  0.49891176918E-01  0.27199917128E+01  0.27204796802E+01  0.10000000000E-01 0.  1.
</event>
<event>
 7   0  0.6206631E-02  0.9118800E+02  0.7818608E-02  0.1180000E+00
       11   -1    0    0    0    0  0.00000000000E+00  0.00000000000E+00  0.11999999989E+02  0.12000000000E+02  0.51109989000E-03 0. -1.
     -623   -1    0    0    0    0  0.00000000000E+00  0.00000000000E+00  0.42561509872E-11  0.25126700000E+02  0.25126700000E+02 0. -1.
      622    2    1    2    0    0 -0.72787958237E-02 -0.22487603226E-02  0.11598979980E+02  0.11599273070E+02  0.82104406524E-01 0.  0.
       11    1    1    2    0    0  0.79205651183E-02 -0.60560216252E-02  0.40060116256E+00  0.40072554625E+00  0.51109989000E-03 0. -1.
     -623    1    1    2    0    0 -0.64176929460E-03  0.83047819478E-02  0.41884672983E-03  0.25126701384E+02  0.25126700000E+02 0. -1.
     -611    1    3    3    0    0 -0.46286851678E-02  0.80574421057E-02  0.11224738459E+02  0.11224746760E+02  0.10000000000E-01 0. -1.
      611    1    3    3    0    0 -0.26501106559E-02 -0.10306202428E-01  0.37424152045E+00  0.37452630952E+00  0.10000000000E-01 0.  1.
</event>
<event>
 7   0  0.6206631E-02  0.9118800E+02  0.7818608E-02  0.1180000E+00
       11   -1    0    0    0    0  0.00000000000E+00  0.00000000000E+00  0.11999999989E+02  0.12000000000E+02  0.51109989000E-03 0. -1.
     -623   -1    0    0    0    0  0.00000000000E+00  0.00000000000E+00  0.42561509872E-11  0.25126700000E+02  0.25126700000E+02 0.  1.
      622    2    1    2    0    0  0.61497191845E-03  0.74610537578E-03  0.11998210599E+02  0.11998585804E+02  0.94883007892E-01 0.  0.
       11    1    1    2    0    0  0.26726255911E-03 -0.64215042739E-03  0.11202106855E-02  0.14141716889E-02  0.51109989000E-03 0. -1.
     -623    1    1    2    0    0 -0.88223447755E-03 -0.10395494838E-03  0.66917982315E-03  0.25126700025E+02  0.25126700000E+02 0.  1.
     -611    1    3    3    0    0  0.29020569510E-01 -0.20905472515E-01  0.22642866905E+01  0.22645912322E+01  0.10000000000E-01 0. -1.
      611    1    3    3    0    0 -0.28405597591E-01  0.21651577890E-01  0.97339239081E+01  0.97339945715E+01  0.10000000000E-01 0. -1.
</event>
<event>
 7   0  0.6206631E-02  0.9118800E+02  0.7818608E-02  0.1180000E+00
       11   -1    0    0    0    0  0.00000000000E+00  0.00000000000E+00  0.11999999989E+02  0.12000000000E+02  0.51109989000E-03 0. -1.
     -623   -1    0    0    0    0  0.00000000000E+00  0.00000000000E+00  0.42561509872E-11  0.25126700000E+02  0.25126700000E+02 0. -1.
      622    2    1    2    0    0  0.27470180393E-03 -0.72457562177E-02  0.11146900822E+02  0.11147198726E+02  0.81172201266E-01 0.  0.
       11    1    1    2    0    0  0.61586174496E-04  0.67655854121E-02  0.85277427226E+00  0.85280126500E+00  0.51109989000E-03 0. -1.
     -623    1    1    2    0    0 -0.33628797843E-03  0.48017080560E-03  0.32489485876E-03  0.25126700009E+02  0.25126700000E+02 0. -1.
     -611    1    3    3    0    0 -0.21132114517E-01 -0.33145874371E-03  0.10027378520E+02  0.10027405779E+02  0.10000000000E-01 0. -1.
      611    1    3    3    0    0  0.21406816321E-01 -0.69142974740E-02  0.11195223019E+01  0.11197929468E+01  0.10000000000E-01 0.  1.
</event>
<event>
 7   0  0.6206631E-02  0.9118800E+02  0.7818608E-02  0.1180000E+00
       11   -1    0    0    0    0  0.00000000000E+00  0.00000000000E+00  0.11999999989E+02  0.12000000000E+02  0.51109989000E-03 0. -1.
     -623   -1    0    0    0    0  0.00000000000E+00  0.00000000000E+00  0.42561509872E-11  0.25126700000E+02  0.25126700000E+02 0. -1.
      622    2    1    2    0    0 -0.28019704635E-02 -0.88027109731E-03  0.11973405593E+02  0.11973798953E+02  0.97011607691E-01 0.  0.
       11    1    1    2    0    0  0.30781423340E-02 -0.11274897716E-02  0.25990051522E-01  0.26200957897E-01  0.51109989000E-03 0. -1.
     -623    1    1    2    0    0 -0.27617187055E-03  0.20077608689E-02  0.60434472783E-03  0.25126700089E+02  0.25126700000E+02 0. -1.
     -611    1    3    3    0    0 -0.25379541063E-01 -0.41415051508E-01  0.60965901728E+01  0.60967918664E+01  0.10000000000E-01 0.  1.
      611    1    3    3    0    0  0.22577570600E-01  0.40534780410E-01  0.58768154201E+01  0.58770070867E+01  0.10000000000E-01 0. -1.
</event>
<event>
 7   0  0.6206631E-02  0.9118800E+02  0.7818608E-02  0.1180000E+00
       11   -1    0    0    0    0  0.00000000000E+00  0.00000000000E+00  0.11999999989E+02  0.12000000000E+02  0.51109989000E-03 0. -1.
     -623   -1    0    0    0    0  0.00000000000E+00  0.00000000000E+00  0.42561509872E-11  0.25126700000E+02  0.25126700000E+02 0. -1.
      622    2    1    2    0    0  0.11712816502E-01  0.12316844681E-02  0.11939068119E+02  0.11939646704E+02  0.11694933567E+00 0.  0.
       11    1    1    2    0    0  0.11032877031E-02  0.34096006303E-02  0.60240925605E-01  0.60349589569E-01  0.51109989000E-03 0. -1.
     -623    1    1    2    0    0 -0.12816104205E-01 -0.46412850983E-02  0.69094422535E-03  0.25126703707E+02  0.25126700000E+02 0. -1.
     -611    1    3    3    0    0  0.32844601673E-01 -0.48808203805E-01  0.49340346762E+01  0.49343955248E+01  0.10000000000E-01 0. -1.
      611    1    3    3    0    0 -0.21131785170E-01  0.50039888273E-01  0.70050334431E+01  0.70052511791E+01  0.10000000000E-01 0.  1.
</event>
<event>
 7   0  0.6206631E-02  0.9118800E+02  0.7818608E-02  0.1180000E+00
       11   -1    0    0    0    0  0.00000000000E+00  0.00000000000E+00  0.11999999989E+02  0.12000000000E+02  0.51109989000E-03 0.  1.
     -623   -1    0    0    0    0  0.00000000000E+00  0.00000000000E+00  0.42561509872E-11  0.25126700000E+02  0.25126700000E+02 0. -1.
      622    2    1    2    0    0 -0.41050521159E-03 -0.35761732071E-02  0.11981500199E+02  0.11982089786E+02  0.11880936412E+00 0.  0.
       11    1    1    2    0    0 -0.20444739130E-02  0.40762230843E-02  0.17312237909E-01  0.17910060658E-01  0.51109989000E-03 0.  1.
     -623    1    1    2    0    0  0.24549791245E-02 -0.50004987728E-03  0.11875518964E-02  0.25126700153E+02  0.25126700000E+02 0. -1.
     -611    1    3    3    0    0  0.54620426631E-01  0.46316118855E-03  0.80259483757E+01  0.80261404757E+01  0.10000000000E-01 0.  1.
      611    1    3    3    0    0 -0.55030931842E-01 -0.40393343956E-02  0.39555518236E+01  0.39559493107E+01  0.10000000000E-01 0. -1.
</event>
<event>
 7   0  0.6206631E-02  0.9118800E+02  0.7818608E-02  0.1180000E+00
       11   -1    0    0    0    0  0.00000000000E+00  0.00000000000E+00  0.11999999989E+02  0.12000000000E+02  0.51109989000E-03 0.  1.
     -623   -1    0    0    0    0  0.00000000000E+00  0.00000000000E+00  0.42561509872E-11  0.25126700000E+02  0.25126700000E+02 0.  1.
      622    2    1    2    0    0  0.15631914049E-02  0.53900498366E-03  0.11994863507E+02  0.11995393134E+02  0.11270829390E+00 0.  0.
       11    1    1    2    0    0  0.17613133605E-02  0.96336971033E-03  0.41144933447E-02  0.46065805710E-02  0.51109989000E-03 0.  1.
     -623    1    1    2    0    0 -0.33245047654E-02 -0.15023746940E-02  0.10219892254E-02  0.25126700286E+02  0.25126700000E+02 0.  1.
     -611    1    3    3    0    0 -0.44299603776E-02 -0.40135408060E-01  0.99738396272E+01  0.99739263775E+01  0.10000000000E-01 0.  1.
      611    1    3    3    0    0  0.59931517825E-02  0.40674413044E-01  0.20210238793E+01  0.20214667562E+01  0.10000000000E-01 0. -1.
</event>
<event>
 7   0  0.6206631E-02  0.9118800E+02  0.7818608E-02  0.1180000E+00
       11   -1    0    0    0    0  0.00000000000E+00  0.00000000000E+00  0.11999999989E+02  0.12000000000E+02  0.51109989000E-03 0. -1.
     -623   -1    0    0    0    0  0.00000000000E+00  0.00000000000E+00  0.42561509872E-11  0.25126700000E+02  0.25126700000E+02 0.  1.
      622    2    1    2    0    0 -0.11668529452E-02  0.43806942474E-01  0.90833578012E+01  0.90836607284E+01  0.59857116588E-01 0.  0.
       11    1    1    2    0    0  0.16005909021E-01 -0.41167362706E-01  0.29160001939E+01  0.29163347429E+01  0.51109989000E-03 0. -1.
     -623    1    1    2    0    0 -0.14839056076E-01 -0.26395797687E-02  0.64199396458E-03  0.25126704529E+02  0.25126700000E+02 0.  1.
     -611    1    3    3    0    0  0.51472169271E-02  0.14698128766E-01  0.70167297529E+00  0.70191701296E+00  0.10000000000E-01 0. -1.
      611    1    3    3    0    0 -0.63140698723E-02  0.29108813708E-01  0.83816848259E+01  0.83817437154E+01  0.10000000000E-01 0. -1.
</event>
<event>
 7   0  0.6206631E-02  0.9118800E+02  0.7818608E-02  0.1180000E+00
       11   -1    0    0    0    0  0.00000000000E+00  0.00000000000E+00  0.11999999989E+02  0.12000000000E+02  0.51109989000E-03 0. -1.
     -623   -1    0    0    0    0  0.00000000000E+00  0.00000000000E+00  0.42561509872E-11  0.25126700000E+02  0.25126700000E+02 0. -1.
      622    2    1    2    0    0  0.16023066399E-01  0.65193169874E-01  0.98239522047E+01  0.98244514916E+01  0.72823782796E-01 0.  0.
       11    1    1    2    0    0 -0.21906858143E-01 -0.32612736171E-01  0.21751718507E+01  0.21755266816E+01  0.51109989000E-03 0. -1.
     -623    1    1    2    0    0  0.58837917432E-02 -0.32580433703E-01  0.87593373928E-03  0.25126721827E+02  0.25126700000E+02 0. -1.
     -611    1    3    3    0    0  0.27888516563E-01  0.26067988624E-01  0.20180311974E+01  0.20184170092E+01  0.10000000000E-01 0. -1.
      611    1    3    3    0    0 -0.11865450164E-01  0.39125181250E-01  0.78059210072E+01  0.78060344824E+01  0.10000000000E-01 0.  1.
</event>
<event>
 7   0  0.6206631E-02  0.9118800E+02  0.7818608E-02  0.1180000E+00
       11   -1    0    0    0    0  0.00000000000E+00  0.00000000000E+00  0.11999999989E+02  0.12000000000E+02  0.51109989000E-03 0. -1.
     -623   -1    0    0    0    0  0.00000000000E+00  0.00000000000E+00  0.42561509872E-11  0.25126700000E+02  0.25126700000E+02 0.  1.
      622    2    1    2    0    0 -0.74707613215E-01 -0.72127073955E-01  0.58636603371E+01  0.58656029604E+01  0.10955362889E+00 0.  0.
       11    1    1    2    0    0  0.43675187814E-02 -0.62476818769E-02  0.61341715011E+01  0.61341762589E+01  0.51109989000E-03 0. -1.
     -623    1    1    2    0    0  0.70340094434E-01  0.78374755831E-01  0.21681509145E-02  0.25126920781E+02  0.25126700000E+02 0.  1.
     -611    1    3    3    0    0 -0.41542677327E-01  0.14130563239E-01  0.95207408274E+00  0.95313720203E+00  0.10000000000E-01 0. -1.
      611    1    3    3    0    0 -0.33164935889E-01 -0.86257637194E-01  0.49115862544E+01  0.49124657583E+01  0.10000000000E-01 0.  1.
</event>
<event>
 7   0  0.6206631E-02  0.9118800E+02  0.7818608E-02  0.1180000E+00
       11   -1    0    0    0    0  0.00000000000E+00  0.00000000000E+00  0.11999999989E+02  0.12000000000E+02  0.51109989000E-03 0. -1.
     -623   -1    0    0    0    0  0.00000000000E+00  0.00000000000E+00  0.42561509872E-11  0.25126700000E+02  0.25126700000E+02 0. -1.
      622    2    1    2    0    0  0.22575217809E-01  0.19931152628E-01  0.56405060618E+01  0.56414489071E+01  0.98642013379E-01 0.  0.
       11    1    1    2    0    0 -0.70613107238E-01 -0.29070269420E-01  0.63580448892E+01  0.63585034691E+01  0.51109989000E-03 0. -1.
     -623    1    1    2    0    0  0.48037889428E-01  0.91391167921E-02  0.14490380862E-02  0.25126747624E+02  0.25126700000E+02 0. -1.
     -611    1    3    3    0    0 -0.31341670406E-01 -0.16437555984E-01  0.23124944777E+01  0.23127868910E+01  0.10000000000E-01 0. -1.
      611    1    3    3    0    0  0.53916888215E-01  0.36368708611E-01  0.33280115841E+01  0.33286620161E+01  0.10000000000E-01 0.  1.
</event>
<event>
 7   0  0.6206631E-02  0.9118800E+02  0.7818608E-02  0.1180000E+00
       11   -1    0    0    0    0  0.00000000000E+00  0.00000000000E+00  0.11999999989E+02  0.12000000000E+02  0.51109989000E-03 0. -1.
     -623   -1    0    0    0    0  0.00000000000E+00  0.00000000000E+00  0.42561509872E-11  0.25126700000E+02  0.25126700000E+02 0. -1.
      622    2    1    2    0    0  0.31502190749E-02 -0.94725572483E-02  0.11930460508E+02  0.11930814261E+02  0.91330873200E-01 0.  0.
       11    1    1    2    0    0  0.33503217337E-02  0.48053666948E-02  0.68934111682E-01  0.69184457657E-01  0.51109989000E-03 0. -1.
     -623    1    1    2    0    0 -0.65005408086E-02  0.46671905535E-02  0.60536905623E-03  0.25126701282E+02  0.25126700000E+02 0. -1.
     -611    1    3    3    0    0 -0.97440481328E-02 -0.47852968291E-01  0.69886624550E+01  0.69888402302E+01  0.10000000000E-01 0.  1.
      611    1    3    3    0    0  0.12894267208E-01  0.38380411043E-01  0.49417980534E+01  0.49419740306E+01  0.10000000000E-01 0. -1.
</event>
<event>
 7   0  0.6206631E-02  0.9118800E+02  0.7818608E-02  0.1180000E+00
       11   -1    0    0    0    0  0.00000000000E+00  0.00000000000E+00  0.11999999989E+02  0.12000000000E+02  0.51109989000E-03 0. -1.
     -623   -1    0    0    0    0  0.00000000000E+00  0.00000000000E+00  0.42561509872E-11  0.25126700000E+02  0.25126700000E+02 0.  1.
      622    2    1    2    0    0  0.14082792367E-01  0.21234799846E-01  0.10811231134E+02  0.10811730750E+02  0.10076667821E+00 0.  0.
       11    1    1    2    0    0 -0.51570331185E-02 -0.22300631066E-01  0.11880470490E+01  0.11882676319E+01  0.51109989000E-03 0. -1.
     -623    1    1    2    0    0 -0.89257592489E-02  0.10658312204E-02  0.72180575262E-03  0.25126701618E+02  0.25126700000E+02 0.  1.
     -611    1    3    3    0    0  0.56230434320E-01  0.19525250019E-01  0.59345074029E+01  0.59348143368E+01  0.10000000000E-01 0. -1.
      611    1    3    3    0    0 -0.42147641953E-01  0.17095498273E-02  0.48767237314E+01  0.48769164129E+01  0.10000000000E-01 0.  1.
</event>
<event>
 7   0  0.6206631E-02  0.9118800E+02  0.7818608E-02  0.1180000E+00
       11   -1    0    0    0    0  0.00000000000E+00  0.00000000000E+00  0.11999999989E+02  0.12000000000E+02  0.51109989000E-03 0. -1.
     -623   -1    0    0    0    0  0.00000000000E+00  0.00000000000E+00  0.42561509872E-11  0.25126700000E+02  0.25126700000E+02 0.  1.
      622    2    1    2    0    0  0.25002244021E-02 -0.19172108407E-01  0.11792362212E+02  0.11792585713E+02  0.69981702371E-01 0.  0.
       11    1    1    2    0    0  0.56817292316E-03  0.23615814326E-01  0.20606342400E+00  0.20741365780E+00  0.51109989000E-03 0. -1.
     -623    1    1    2    0    0 -0.30683973253E-02 -0.44437059193E-02  0.15743535324E-02  0.25126700630E+02  0.25126700000E+02 0.  1.
     -611    1    3    3    0    0  0.26994303449E-01 -0.23054068851E-01  0.38047807742E+01  0.38049595165E+01  0.10000000000E-01 0.  1.
      611    1    3    3    0    0 -0.24494079047E-01  0.38819604442E-02  0.79875814374E+01  0.79876261961E+01  0.10000000000E-01 0. -1.
</event>
<event>
 7   0  0.6206631E-02  0.9118800E+02  0.7818608E-02  0.1180000E+00
       11   -1    0    0    0    0  0.00000000000E+00  0.00000000000E+00  0.11999999989E+02  0.12000000000E+02  0.51109989000E-03 0.  1.
     -623   -1    0    0    0    0  0.00000000000E+00  0.00000000000E+00  0.42561509872E-11  0.25126700000E+02  0.25126700000E+02 0.  1.
      622    2    1    2    0    0  0.93989212963E-02  0.19644956427E-02  0.11877734190E+02  0.11877874194E+02  0.56865445736E-01 0.  0.
       11    1    1    2    0    0 -0.91012994062E-02 -0.34794337722E-02  0.12173536139E+00  0.12212575300E+00  0.51109989000E-03 0.  1.
     -623    1    1    2    0    0 -0.29762189021E-03  0.15149381295E-02  0.53043766487E-03  0.25126700053E+02  0.25126700000E+02 0.  1.
     -611    1    3    3    0    0  0.81278177959E-02  0.23611757512E-01  0.90242069077E+01  0.90242469985E+01  0.10000000000E-01 0.  1.
      611    1    3    3    0    0  0.12711035004E-02 -0.21647261870E-01  0.28535272823E+01  0.28536271954E+01  0.10000000000E-01 0.  1.
</event>
<event>
 7   0  0.6206631E-02  0.9118800E+02  0.7818608E-02  0.1180000E+00
       11   -1    0    0    0    0  0.00000000000E+00  0.00000000000E+00  0.11999999989E+02  0.12000000000E+02  0.51109989000E-03 0. -1.
     -623   -1    0    0    0    0  0.00000000000E+00  0.00000000000E+00  0.42561509872E-11  0.25126700000E+02  0.25126700000E+02 0.  1.
      622    2    1    2    0    0 -0.31146051113E-01  0.45747256285E-01  0.10871812200E+02  0.10872385765E+02  0.96999117655E-01 0.  0.
       11    1    1    2    0    0 -0.29085173482E-01 -0.61026848634E-01  0.11255086758E+01  0.11275372562E+01  0.51109989000E-03 0. -1.
     -623    1    1    2    0    0  0.60231224595E-01  0.15279592349E-01  0.26791134135E-02  0.25126776979E+02  0.25126700000E+02 0.  1.
     -611    1    3    3    0    0 -0.28440070937E-01  0.20664300461E-01  0.10146815030E+02  0.10146880856E+02  0.10000000000E-01 0. -1.
      611    1    3    3    0    0 -0.27059801766E-02  0.25082955825E-01  0.72499717011E+00  0.72550490948E+00  0.10000000000E-01 0.  1.
</event>
<event>
 7   0  0.6206631E-02  0.9118800E+02  0.7818608E-02  0.1180000E+00
       11   -1    0    0    0    0  0.00000000000E+00  0.00000000000E+00  0.11999999989E+02  0.12000000000E+02  0.51109989000E-03 0. -1.
     -623   -1    0    0    0    0  0.00000000000E+00  0.00000000000E+00  0.42561509872E-11  0.25126700000E+02  0.25126700000E+02 0.  1.
      622    2    1    2    0    0 -0.29319508584E-01 -0.58862434082E-01  0.53213749906E+01  0.53230087831E+01  0.11430789484E+00 0.  0.
       11    1    1    2    0    0  0.10984794735E-01  0.10257065297E+00  0.66761494465E+01  0.66769463902E+01  0.51109989000E-03 0. -1.
     -623    1    1    2    0    0  0.18334713849E-01 -0.43708218884E-01  0.24755520980E-02  0.25126744827E+02  0.25126700000E+02 0.  1.
     -611    1    3    3    0    0  0.13114695187E-01  0.18249069307E-01  0.35828740626E+00  0.35913074116E+00  0.10000000000E-01 0.  1.
      611    1    3    3    0    0 -0.42434203771E-01 -0.77111503389E-01  0.49630875843E+01  0.49638780419E+01  0.10000000000E-01 0. -1.
</event>
<event>
 7   0  0.6206631E-02  0.9118800E+02  0.7818608E-02  0.1180000E+00
       11   -1    0    0    0    0  0.00000000000E+00  0.00000000000E+00  0.11999999989E+02  0.12000000000E+02  0.51109989000E-03 0. -1.
     -623   -1    0    0    0    0  0.00000000000E+00  0.00000000000E+00  0.42561509872E-11  0.25126700000E+02  0.25126700000E+02 0.  1.
      622    2    1    2    0    0  0.67033824250E-01 -0.11849887015E+00  0.10904501860E+02  0.10906086324E+02  0.12658035622E+00 0.  0.
       11    1    1    2    0    0 -0.14544819385E-01  0.13125737609E+00  0.10858525404E+01  0.10938537614E+01  0.51109989000E-03 0. -1.
     -623    1    1    2    0    0 -0.52489004866E-01 -0.12758505941E-01  0.96455891087E-02  0.25126759915E+02  0.25126700000E+02 0.  1.
     -611    1    3    3    0    0 -0.95871764601E-02 -0.62806706331E-01  0.19147610712E+01  0.19158409527E+01  0.10000000000E-01 0. -1.
      611    1    3    3    0    0  0.76621000710E-01 -0.55692163820E-01  0.89897407884E+01  0.89902453714E+01  0.10000000000E-01 0. -1.
</event>
<event>
 7   0  0.6206631E-02  0.9118800E+02  0.7818608E-02  0.1180000E+00
       11   -1    0    0    0    0  0.00000000000E+00  0.00000000000E+00  0.11999999989E+02  0.12000000000E+02  0.51109989000E-03 0.  1.
     -623   -1    0    0    0    0  0.00000000000E+00  0.00000000000E+00  0.42561509872E-11  0.25126700000E+02  0.25126700000E+02 0. -1.
      622    2    1    2    0    0  0.19476200940E-02 -0.42728437814E-02  0.11995719521E+02  0.11996254570E+02  0.11320261947E+00 0.  0.
       11    1    1    2    0    0  0.10513021025E-03  0.20672348764E-02  0.30791135328E-02  0.37452203756E-02  0.51109989000E-03 0.  1.
     -623    1    1    2    0    0 -0.20527503042E-02  0.22056089050E-02  0.12013544085E-02  0.25126700209E+02  0.25126700000E+02 0. -1.
     -611    1    3    3    0    0 -0.35019996416E-01 -0.32072950989E-01  0.92497869836E+01  0.92499142870E+01  0.10000000000E-01 0.  1.
      611    1    3    3    0    0  0.36967616510E-01  0.27800107208E-01  0.27459325375E+01  0.27463402832E+01  0.10000000000E-01 0.  1.
</event>
<event>
 7   0  0.6206631E-02  0.9118800E+02  0.7818608E-02  0.1180000E+00
       11   -1    0    0    0    0  0.00000000000E+00  0.00000000000E+00  0.11999999989E+02  0.12000000000E+02  0.51109989000E-03 0.  1.
     -623   -1    0    0    0    0  0.00000000000E+00  0.00000000000E+00  0.42561509872E-11  0.25126700000E+02  0.25126700000E+02 0.  1.
      622    2    1    2    0    0  0.10849945009E-01  0.19929615390E-01  0.11868432547E+02  0.11868902881E+02  0.10319676810E+00 0.  0.
       11    1    1    2    0    0 -0.13720128199E-01 -0.13714020953E-01  0.12965189291E+00  0.13109611301E+00  0.51109989000E-03 0.  1.
     -623    1    1    2    0    0  0.28701831897E-02 -0.62155944371E-02  0.19155492755E-02  0.25126701006E+02  0.25126700000E+02 0.  1.
     -611    1    3    3    0    0 -0.31539823804E-01  0.15677956427E-01  0.17854412142E+01  0.17858165886E+01  0.10000000000E-01 0. -1.
      611    1    3    3    0    0  0.42389768813E-01  0.42516589637E-02  0.10082991333E+02  0.10083086293E+02  0.10000000000E-01 0.  1.
</event>
<event>
 7   0  0.6206631E-02  0.9118800E+02  0.7818608E-02  0.1180000E+00
       11   -1    0    0    0    0  0.00000000000E+00  0.00000000000E+00  0.11999999989E+02  0.12000000000E+02  0.51109989000E-03 0.  1.
     -623   -1    0    0    0    0  0.00000000000E+00  0.00000000000E+00  0.42561509872E-11  0.25126700000E+02  0.25126700000E+02 0. -1.
      622    2    1    2    0    0 -0.62529885025E-02 -0.20008097209E-02  0.11020923753E+02  0.11021147007E+02  0.69841767172E-01 0.  0.
       11    1    1    2    0    0  0.36373504382E-02 -0.43497077199E-02  0.97883549712E+00  0.97885205313E+00  0.51109989000E-03 0.  1.
     -623    1    1    2    0    0  0.26156380643E-02  0.63505174409E-02  0.24073871763E-03  0.25126700940E+02  0.25126700000E+02 0. -1.
     -611    1    3    3    0    0  0.12248161764E-01 -0.29415487488E-01  0.67919888342E+01  0.67920709370E+01  0.10000000000E-01 0.  1.
      611    1    3    3    0    0 -0.18501150266E-01  0.27414677767E-01  0.42289349190E+01  0.42290760701E+01  0.10000000000E-01 0. -1.
</event>
<event>
 7   0  0.6206631E-02  0.9118800E+02  0.7818608E-02  0.1180000E+00
       11   -1    0    0    0    0  0.00000000000E+00  0.00000000000E+00  0.11999999989E+02  0.12000000000E+02  0.51109989000E-03 0.  1.
     -623   -1    0    0    0    0  0.00000000000E+00  0.00000000000E+00  0.42561509872E-11  0.25126700000E+02  0.25126700000E+02 0. -1.
      622    2    1    2    0    0 -0.11724873676E-01  0.13017245743E-01  0.11793656258E+02  0.11794156612E+02  0.10721626570E+00 0.  0.
       11    1    1    2    0    0  0.11343415059E-02 -0.30484220074E-01  0.20356125173E+00  0.20583493103E+00  0.51109989000E-03 0.  1.
     -623    1    1    2    0    0  0.10590532170E-01  0.17466974331E-01  0.27824791761E-02  0.25126708457E+02  0.25126700000E+02 0. -1.
     -611    1    3    3    0    0  0.45558673950E-01  0.18461663120E-01  0.56608974366E+01  0.56611196961E+01  0.10000000000E-01 0. -1.
      611    1    3    3    0    0 -0.57283547626E-01 -0.54444173771E-02  0.61327588215E+01  0.61330369157E+01  0.10000000000E-01 0.  1.
</event>
<event>
 7   0  0.6206631E-02  0.9118800E+02  0.7818608E-02  0.1180000E+00
       11   -1    0    0    0    0  0.00000000000E+00  0.00000000000E+00  0.11999999989E+02  0.12000000000E+02  0.51109989000E-03 0.  1.
     -623   -1    0    0    0    0  0.00000000000E+00  0.00000000000E+00  0.42561509872E-11  0.25126700000E+02  0.25126700000E+02 0.  1.
      622    2    1    2    0    0  0.71299651106E-01 -0.59059757293E-01  0.81186398204E+01  0.81197954813E+01  0.10096747067E+00 0.  0.
       11    1    1    2    0    0 -0.69692866447E-01  0.60050366839E-01  0.38791136067E+01  0.38802043474E+01  0.51109989000E-03 0.  1.
     -623    1    1    2    0    0 -0.16067846592E-02 -0.99060954577E-03  0.22465620258E-02  0.25126700171E+02  0.25126700000E+02 0.  1.
     -611    1    3    3    0    0  0.67476179193E-01 -0.79911802969E-01  0.51987704925E+01  0.51998320708E+01  0.10000000000E-01 0.  1.
      611    1    3    3    0    0  0.38234719131E-02  0.20852045676E-01  0.29198693279E+01  0.29199634105E+01  0.10000000000E-01 0. -1.
</event>
<event>
 7   0  0.6206631E-02  0.9118800E+02  0.7818608E-02  0.1180000E+00
       11   -1    0    0    0    0  0.00000000000E+00  0.00000000000E+00  0.11999999989E+02  0.12000000000E+02  0.51109989000E-03 0. -1.
     -623   -1    0    0    0    0  0.00000000000E+00  0.00000000000E+00  0.42561509872E-11  0.25126700000E+02  0.25126700000E+02 0. -1.
      622    2    1    2    0    0  0.10521156618E-02  0.63857586877E-03  0.11965940450E+02  0.11966174387E+02  0.74813835509E-01 0.  0.
       11    1    1    2    0    0 -0.42835982580E-03 -0.27805164620E-03  0.33817883737E-01  0.33825601080E-01  0.51109989000E-03 0. -1.
     -623    1    1    2    0    0 -0.62375583601E-03 -0.36052422257E-03  0.24165568793E-03  0.25126700011E+02  0.25126700000E+02 0. -1.
     -611    1    3    3    0    0 -0.30834490151E-02 -0.18550706476E-01  0.10826706380E+02  0.10826727330E+02  0.10000000000E-01 0. -1.
      611    1    3    3    0    0  0.41355646769E-02  0.19189282345E-01  0.11392340695E+01  0.11394470574E+01  0.10000000000E-01 0.  1.
</event>
<event>
 7   0  0.6206631E-02  0.9118800E+02  0.7818608E-02  0.1180000E+00
       11   -1    0    0    0    0  0.00000000000E+00  0.00000000000E+00  0.11999999989E+02  0.12000000000E+02  0.51109989000E-03 0.  1.
     -623   -1    0    0    0    0  0.00000000000E+00  0.00000000000E+00  0.42561509872E-11  0.25126700000E+02  0.25126700000E+02 0. -1.
      622    2    1    2    0    0  0.17314241912E-01  0.13147987894E-01  0.11249862373E+02  0.11249948121E+02  0.38166098483E-01 0.  0.
       11    1    1    2    0    0 -0.16520989738E-01 -0.97827139589E-02  0.74980567855E+00  0.75005163916E+00  0.51109989000E-03 0.  1.
     -623    1    1    2    0    0 -0.79325217370E-03 -0.33652739346E-02  0.33193735135E-03  0.25126700240E+02  0.25126700000E+02 0. -1.
     -611    1    3    3    0    0  0.24848810947E-01  0.10398272644E-01  0.58533810958E+01  0.58534516176E+01  0.10000000000E-01 0.  1.
      611    1    3    3    0    0 -0.75345690354E-02  0.27497152492E-02  0.53964812775E+01  0.53964965032E+01  0.10000000000E-01 0. -1.
</event>
<event>
 7   0  0.6206631E-02  0.9118800E+02  0.7818608E-02  0.1180000E+00
       11   -1    0    0    0    0  0.00000000000E+00  0.00000000000E+00  0.11999999989E+02  0.12000000000E+02  0.51109989000E-03 0.  1.
     -623   -1    0    0    0    0  0.00000000000E+00  0.00000000000E+00  0.42561509872E-11  0.25126700000E+02  0.25126700000E+02 0.  1.
      622    2    1    2    0    0 -0.41620754527E-02 -0.35163281506E-01  0.10613094645E+02  0.10613638199E+02  0.10141045644E+00 0.  0.
       11    1    1    2    0    0  0.58420272674E-02  0.56758243648E-01  0.13851776439E+01  0.13863524061E+01  0.51109989000E-03 0.  1.
     -623    1    1    2    0    0 -0.16799518147E-02 -0.21594962142E-01  0.17276999535E-02  0.25126709395E+02  0.25126700000E+02 0.  1.
     -611    1    3    3    0    0 -0.24927705246E-01 -0.24022688339E-01  0.99280763002E+01  0.99281416944E+01  0.10000000000E-01 0.  1.
      611    1    3    3    0    0  0.20765629793E-01 -0.11140593168E-01  0.68501834504E+00  0.68549650417E+00  0.10000000000E-01 0. -1.
</event>
<event>
 7   0  0.6206631E-02  0.9118800E+02  0.7818608E-02  0.1180000E+00
       11   -1    0    0    0    0  0.00000000000E+00  0.00000000000E+00  0.11999999989E+02  0.12000000000E+02  0.51109989000E-03 0.  1.
     -623   -1    0    0    0    0  0.00000000000E+00  0.00000000000E+00  0.42561509872E-11  0.25126700000E+02  0.25126700000E+02 0.  1.
      622    2    1    2    0    0 -0.20329614446E-01  0.71151175873E-02  0.80144155197E+01  0.80148272811E+01  0.78334577481E-01 0.  0.
       11    1    1    2    0    0  0.16473520514E-01 -0.81168471652E-02  0.39851300515E+01  0.39851723989E+01  0.51109989000E-03 0.  1.
     -623    1    1    2    0    0  0.38560939316E-02  0.10017295779E-02  0.45441789532E-03  0.25126700320E+02  0.25126700000E+02 0.  1.
     -611    1    3    3    0    0  0.20064596076E-01  0.80801441190E-02  0.56162001718E+01  0.56162507286E+01  0.10000000000E-01 0.  1.
      611    1    3    3    0    0 -0.40394210522E-01 -0.96502653170E-03  0.23982153479E+01  0.23985765525E+01  0.10000000000E-01 0.  1.
</event>
<event>
 7   0  0.6206631E-02  0.9118800E+02  0.7818608E-02  0.1180000E+00
       11   -1    0    0    0    0  0.00000000000E+00  0.00000000000E+00  0.11999999989E+02  0.12000000000E+02  0.51109989000E-03 0.  1.
     -623   -1    0    0    0    0  0.00000000000E+00  0.00000000000E+00  0.42561509872E-11  0.25126700000E+02  0.25126700000E+02 0.  1.
      622    2    1    2    0    0  0.75481952036E-03  0.14394518572E-01  0.10165221989E+02  0.10165469146E+02  0.69405364778E-01 0.  0.
       11    1    1    2    0    0 -0.34245705949E-02 -0.28617216312E-01  0.18343001976E+01  0.18345266825E+01  0.51109989000E-03 0.  1.
     -623    1    1    2    0    0  0.26697510745E-02  0.14222697740E-01  0.47780291551E-03  0.25126704172E+02  0.25126700000E+02 0.  1.
     -611    1    3    3    0    0  0.86029474784E-03  0.10370976592E-01  0.43169430704E+00  0.43193549517E+00  0.10000000000E-01 0.  1.
      611    1    3    3    0    0 -0.10547522747E-03  0.40235419800E-02  0.97335276816E+01  0.97335336506E+01  0.10000000000E-01 0.  1.
</event>
<event>
 7   0  0.6206631E-02  0.9118800E+02  0.7818608E-02  0.1180000E+00
       11   -1    0    0    0    0  0.00000000000E+00  0.00000000000E+00  0.11999999989E+02  0.12000000000E+02  0.51109989000E-03 0.  1.
     -623   -1    0    0    0    0  0.00000000000E+00  0.00000000000E+00  0.42561509872E-11  0.25126700000E+02  0.25126700000E+02 0.  1.
      622    2    1    2    0    0  0.52640203805E-03 -0.57026553701E-03  0.11179062964E+02  0.11179347810E+02  0.79800345634E-01 0.  0.
       11    1    1    2    0    0 -0.13786995170E-02  0.12325073137E-02  0.82064992266E+00  0.82065216546E+00  0.51109989000E-03 0.  1.
     -623    1    1    2    0    0  0.85229747895E-03 -0.66224177664E-03  0.28710245397E-03  0.25126700025E+02  0.25126700000E+02 0.  1.
     -611    1    3    3    0    0 -0.12481480155E-01  0.29040741642E-01  0.85843211086E+01  0.85843851292E+01  0.10000000000E-01 0.  1.
      611    1    3    3    0    0  0.13007882193E-01 -0.29611007179E-01  0.25947418555E+01  0.25949626805E+01  0.10000000000E-01 0. -1.
</event>
<event>
 7   0  0.6206631E-02  0.9118800E+02  0.7818608E-02  0.1180000E+00
       11   -1    0    0    0    0  0.00000000000E+00  0.00000000000E+00  0.11999999989E+02  0.12000000000E+02  0.51109989000E-03 0. -1.
     -623   -1    0    0    0    0  0.00000000000E+00  0.00000000000E+00  0.42561509872E-11  0.25126700000E+02  0.25126700000E+02 0. -1.
      622    2    1    2    0    0  0.28077018936E-01  0.20533868766E-01  0.75691063029E+01  0.75699344990E+01  0.10643371381E+00 0.  0.
       11    1    1    2    0    0 -0.25519731680E-01 -0.25495982226E-01  0.44299179584E+01  0.44300648619E+01  0.51109989000E-03 0. -1.
     -623    1    1    2    0    0 -0.25572872565E-02  0.49621134598E-02  0.97572780664E-03  0.25126700639E+02  0.25126700000E+02 0. -1.
     -611    1    3    3    0    0 -0.17692802370E-01 -0.26336140111E-01  0.44497038574E+01  0.44498282041E+01  0.10000000000E-01 0.  1.
      611    1    3    3    0    0  0.45769821306E-01  0.46870008877E-01  0.31194024455E+01  0.31201062949E+01  0.10000000000E-01 0. -1.
</event>
<event>
 7   0  0.6206631E-02  0.9118800E+02  0.7818608E-02  0.1180000E+00
       11   -1    0    0    0    0  0.00000000000E+00  0.00000000000E+00  0.11999999989E+02  0.12000000000E+02  0.51109989000E-03 0. -1.
     -623   -1    0    0    0    0  0.00000000000E+00  0.00000000000E+00  0.42561509872E-11  0.25126700000E+02  0.25126700000E+02 0. -1.
      622    2    1    2    0    0  0.37821768853E-02 -0.25690601633E-02  0.11837604210E+02  0.11837866492E+02  0.78668486498E-01 0.  0.
       11    1    1    2    0    0 -0.32636861965E-02  0.37502960328E-02  0.16205642674E+00  0.16213347292E+00  0.51109989000E-03 0. -1.
     -623    1    1    2    0    0 -0.51849068877E-03 -0.11812358695E-02  0.33935210387E-03  0.25126700035E+02  0.25126700000E+02 0. -1.
     -611    1    3    3    0    0  0.26939508501E-01 -0.12168345093E-01  0.10137834294E+02  0.10137882322E+02  0.10000000000E-01 0. -1.
      611    1    3    3    0    0 -0.23157331616E-01  0.95992849295E-02  0.16997699162E+01  0.16999841694E+01  0.10000000000E-01 0.  1.
</event>
<event>
 7   0  0.6206631E-02  0.9118800E+02  0.7818608E-02  0.1180000E+00
       11   -1    0    0    0    0  0.00000000000E+00  0.00000000000E+00  0.11999999989E+02  0.12000000000E+02  0.51109989000E-03 0.  1.
     -623   -1    0    0    0    0  0.00000000000E+00  0.00000000000E+00  0.42561509872E-11  0.25126700000E+02  0.25126700000E+02 0.  1.
      622    2    1    2    0    0  0.88405722049E-02 -0.56886333865E-02  0.11993034514E+02  0.11993307041E+02  0.80164937246E-01 0.  0.
       11    1    1    2    0    0 -0.37693608726E-02  0.14144739744E-02  0.53210167519E-02  0.66920296188E-02  0.51109989000E-03 0.  1.
     -623    1    1    2    0    0 -0.50712113323E-02  0.42741594121E-02  0.16444583976E-02  0.25126700929E+02  0.25126700000E+02 0.  1.
     -611    1    3    3    0    0 -0.37734358134E-02  0.32342463204E-01  0.33328611200E+01  0.33330351811E+01  0.10000000000E-01 0. -1.
      611    1    3    3    0    0  0.12614008018E-01 -0.38031096591E-01  0.86601733940E+01  0.86602718601E+01  0.10000000000E-01 0.  1.
</event>
<event>
 7   0  0.6206631E-02  0.9118800E+02  0.7818608E-02  0.1180000E+00
       11   -1    0    0    0    0  0.00000000000E+00  0.00000000000E+00  0.11999999989E+02  0.12000000000E+02  0.51109989000E-03 0. -1.
     -623   -1    0    0    0    0  0.00000000000E+00  0.00000000000E+00  0.42561509872E-11  0.25126700000E+02  0.25126700000E+02 0. -1.
      622    2    1    2    0    0  0.49024381069E-02  0.29658881283E-02  0.10874704592E+02  0.10874816264E+02  0.48948702086E-01 0.  0.
       11    1    1    2    0    0 -0.10633458199E-01 -0.19806016289E-01  0.11249527344E+01  0.11251774369E+01  0.51109989000E-03 0. -1.
     -623    1    1    2    0    0  0.57310200923E-02  0.16840128161E-01  0.34266245522E-03  0.25126706299E+02  0.25126700000E+02 0. -1.
     -611    1    3    3    0    0  0.86100780842E-02 -0.19993881945E-01  0.51725878067E+01  0.51726432805E+01  0.10000000000E-01 0. -1.
      611    1    3    3    0    0 -0.37076399773E-02  0.22959770074E-01  0.57021167856E+01  0.57021729836E+01  0.10000000000E-01 0.  1.
</event>
<event>
 7   0  0.6206631E-02  0.9118800E+02  0.7818608E-02  0.1180000E+00
       11   -1    0    0    0    0  0.00000000000E+00  0.00000000000E+00  0.11999999989E+02  0.12000000000E+02  0.51109989000E-03 0.  1.
     -623   -1    0    0    0    0  0.00000000000E+00  0.00000000000E+00  0.42561509872E-11  0.25126700000E+02  0.25126700000E+02 0.  1.
      622    2    1    2    0    0 -0.21325038032E-02 -0.22901100944E-01  0.11254954738E+02  0.11255022228E+02  0.31467496242E-01 0.  0.
       11    1    1    2    0    0  0.27330736128E-02  0.22944621336E-01  0.74461914921E+00  0.74497776070E+00  0.51109989000E-03 0.  1.
     -623    1    1    2    0    0 -0.60056980958E-03 -0.43520392226E-04  0.42610201107E-03  0.25126700011E+02  0.25126700000E+02 0.  1.
     -611    1    3    3    0    0 -0.91654009257E-02 -0.16471828143E-01  0.89930097217E+01  0.89930350372E+01  0.10000000000E-01 0.  1.
      611    1    3    3    0    0  0.70328971225E-02 -0.64292728003E-02  0.22619450161E+01  0.22619871912E+01  0.10000000000E-01 0.  1.
</event>
<event>
 7   0  0.6206631E-02  0.9118800E+02  0.7818608E-02  0.1180000E+00
       11   -1    0    0    0    0  0.00000000000E+00  0.00000000000E+00  0.11999999989E+02  0.12000000000E+02  0.51109989000E-03 0.  1.
     -623   -1    0    0    0    0  0.00000000000E+00  0.00000000000E+00  0.42561509872E-11  0.25126700000E+02  0.25126700000E+02 0. -1.
      622    2    1    2    0    0 -0.43961585985E-02  0.38673880542E-02  0.11938699857E+02  0.11938979816E+02  0.81550471127E-01 0.  0.
       11    1    1    2    0    0  0.54858741813E-02 -0.25830074191E-02  0.60715954717E-01  0.61020120642E-01  0.51109989000E-03 0.  1.
     -623    1    1    2    0    0 -0.10897155828E-02 -0.12843806351E-02  0.58417691156E-03  0.25126700063E+02  0.25126700000E+02 0. -1.
     -611    1    3    3    0    0 -0.35539405748E-01  0.67639053629E-02  0.92985901495E+01  0.92986659026E+01  0.10000000000E-01 0.  1.
      611    1    3    3    0    0  0.31143247149E-01 -0.28965173087E-02  0.26401097080E+01  0.26403139135E+01  0.10000000000E-01 0. -1.
</event>
<event>
 7   0  0.6206631E-02  0.9118800E+02  0.7818608E-02  0.1180000E+00
       11   -1    0    0    0    0  0.00000000000E+00  0.00000000000E+00  0.11999999989E+02  0.12000000000E+02  0.51109989000E-03 0.  1.
     -623   -1    0    0    0    0  0.00000000000E+00  0.00000000000E+00  0.42561509872E-11  0.25126700000E+02  0.25126700000E+02 0. -1.
      622    2    1    2    0    0 -0.74136471196E-03  0.15377418083E-02  0.11934032972E+02  0.11934572816E+02  0.11350066158E+00 0.  0.
       11    1    1    2    0    0  0.11533465621E-02 -0.25658423430E-02  0.65364648995E-01  0.65427152747E-01  0.51109989000E-03 0.  1.
     -623    1    1    2    0    0 -0.41198185014E-03  0.10281005348E-02  0.60236811902E-03  0.25126700032E+02  0.25126700000E+02 0. -1.
     -611    1    3    3    0    0  0.35057298631E-01  0.36266223092E-01  0.34062159359E+01  0.34066040650E+01  0.10000000000E-01 0. -1.
      611    1    3    3    0    0 -0.35798663343E-01 -0.34728481284E-01  0.85278170360E+01  0.85279687506E+01  0.10000000000E-01 0.  1.
</event>
<event>
 7   0  0.6206631E-02  0.9118800E+02  0.7818608E-02  0.1180000E+00
       11   -1    0    0    0    0  0.00000000000E+00  0.00000000000E+00  0.11999999989E+02  0.12000000000E+02  0.51109989000E-03 0. -1.
     -623   -1    0    0    0    0  0.00000000000E+00  0.00000000000E+00  0.42561509872E-11  0.25126700000E+02  0.25126700000E+02 0.  1.
      622    2    1    2    0    0  0.26378013655E-02 -0.67072732181E-02  0.11901714252E+02  0.11902001539E+02  0.82380466183E-01 0.  0.
       11    1    1    2    0    0 -0.39461648264E-02  0.66947894414E-02  0.97688467686E-01  0.97998420214E-01  0.51109989000E-03 0. -1.
     -623    1    1    2    0    0  0.13083634609E-02  0.12483776709E-04  0.59726933562E-03  0.25126700041E+02  0.25126700000E+02 0.  1.
     -611    1    3    3    0    0  0.57160384962E-02 -0.43211735189E-01  0.64218021935E+01  0.64219579055E+01  0.10000000000E-01 0.  1.
      611    1    3    3    0    0 -0.30782371308E-02  0.36504461971E-01  0.54799120586E+01  0.54800436332E+01  0.10000000000E-01 0. -1.
</event>
<event>
 7   0  0.6206631E-02  0.9118800E+02  0.7818608E-02  0.1180000E+00
       11   -1    0    0    0    0  0.00000000000E+00  0.00000000000E+00  0.11999999989E+02  0.12000000000E+02  0.51109989000E-03 0. -1.
     -623   -1    0    0    0    0  0.00000000000E+00  0.00000000000E+00  0.42561509872E-11  0.25126700000E+02  0.25126700000E+02 0. -1.
      622    2    1    2    0    0  0.13330180225E+00 -0.98270532815E-01  0.98056798628E+01  0.98076285371E+01  0.10389168134E+00 0.  0.
       11    1    1    2    0    0  0.41017683392E-01 -0.75871560284E-02  0.21911465286E+01  0.21915436081E+01  0.51109989000E-03 0. -1.
     -623    1    1    2    0    0 -0.17431948564E+00  0.10585768884E+00  0.31735977463E-02  0.25127527855E+02  0.25126700000E+02 0. -1.
     -611    1    3    3    0    0  0.84213365357E-01 -0.10878620012E+00  0.58943162175E+01  0.58959299521E+01  0.10000000000E-01 0.  1.
      611    1    3    3    0    0  0.49088436890E-01  0.10515667308E-01  0.39113636453E+01  0.39116985850E+01  0.10000000000E-01 0. -1.
</event>
<event>
 7   0  0.6206631E-02  0.9118800E+02  0.7818608E-02  0.1180000E+00
       11   -1    0    0    0    0  0.00000000000E+00  0.00000000000E+00  0.11999999989E+02  0.12000000000E+02  0.51109989000E-03 0. -1.
     -623   -1    0    0    0    0  0.00000000000E+00  0.00000000000E+00  0.42561509872E-11  0.25126700000E+02  0.25126700000E+02 0. -1.
      622    2    1    2    0    0 -0.12585372656E-01  0.19828360954E-01  0.11716250965E+02  0.11716851408E+02  0.11626991245E+00 0.  0.
       11    1    1    2    0    0 -0.35489486967E-01  0.17501171530E-02  0.28085390216E+00  0.28309316872E+00  0.51109989000E-03 0. -1.
     -623    1    1    2    0    0  0.48074859623E-01 -0.21578478107E-01  0.28951220728E-02  0.25126755423E+02  0.25126700000E+02 0. -1.
     -611    1    3    3    0    0 -0.84096067389E-02 -0.23934521008E-01  0.73173227012E+00  0.73224019141E+00  0.10000000000E-01 0.  1.
      611    1    3    3    0    0 -0.41757659175E-02  0.43762881962E-01  0.10984518695E+02  0.10984611217E+02  0.10000000000E-01 0. -1.
</event>
<event>
 7   0  0.6206631E-02  0.9118800E+02  0.7818608E-02  0.1180000E+00
       11   -1    0    0    0    0  0.00000000000E+00  0.00000000000E+00  0.11999999989E+02  0.12000000000E+02  0.51109989000E-03 0.  1.
     -623   -1    0    0    0    0  0.00000000000E+00  0.00000000000E+00  0.42561509872E-11  0.25126700000E+02  0.25126700000E+02 0. -1.
      622    2    1    2    0    0  0.41645673833E-03  0.34948575602E-01  0.11610657849E+02  0.11611226204E+02  0.10943811175E+00 0.  0.
       11    1    1    2    0    0  0.11761838347E+00  0.25235213056E-01  0.36931858795E+00  0.38841650420E+00  0.51109989000E-03 0.  1.
     -623    1    1    2    0    0 -0.11803484020E+00 -0.60183788658E-01  0.20023552273E-01  0.25127057292E+02  0.25126700000E+02 0. -1.
     -611    1    3    3    0    0  0.34717474537E-01  0.11057924969E-01  0.14960649289E+01  0.14965419647E+01  0.10000000000E-01 0.  1.
      611    1    3    3    0    0 -0.34301017799E-01  0.23890650633E-01  0.10114592920E+02  0.10114684239E+02  0.10000000000E-01 0.  1.
</event>
<event>
 7   0  0.6206631E-02  0.9118800E+02  0.7818608E-02  0.1180000E+00
       11   -1    0    0    0    0  0.00000000000E+00  0.00000000000E+00  0.11999999989E+02  0.12000000000E+02  0.51109989000E-03 0.  1.
     -623   -1    0    0    0    0  0.00000000000E+00  0.00000000000E+00  0.42561509872E-11  0.25126700000E+02  0.25126700000E+02 0. -1.
      622    2    1    2    0    0 -0.14796740216E-01 -0.13526117166E-01  0.58746364062E+01  0.58747387877E+01  0.28302287218E-01 0.  0.
       11    1    1    2    0    0  0.15068716063E-01  0.12959074457E-01  0.61252289390E+01  0.61252612042E+01  0.51109989000E-03 0.  1.
     -623    1    1    2    0    0 -0.27197584742E-03  0.56704270800E-03  0.13464410833E-03  0.25126700008E+02  0.25126700000E+02 0. -1.
     -611    1    3    3    0    0 -0.16640614849E-01 -0.39039712398E-02  0.27678058025E+01  0.27678766431E+01  0.10000000000E-01 0.  1.
      611    1    3    3    0    0  0.18438746323E-02 -0.96221459260E-02  0.31068306037E+01  0.31068621446E+01  0.10000000000E-01 0. -1.
</event>
<event>
 7   0  0.6206631E-02  0.9118800E+02  0.7818608E-02  0.1180000E+00
       11   -1    0    0    0    0  0.00000000000E+00  0.00000000000E+00  0.11999999989E+02  0.12000000000E+02  0.51109989000E-03 0.  1.
     -623   -1    0    0    0    0  0.00000000000E+00  0.00000000000E+00  0.42561509872E-11  0.25126700000E+02  0.25126700000E+02 0. -1.
      622    2    1    2    0    0 -0.65116083667E-02 -0.37518395677E-01  0.78165714933E+01  0.78168970340E+01  0.60326599594E-01 0.  0.
       11    1    1    2    0    0  0.90254824358E-02  0.44266491225E-01  0.41828579337E+01  0.41831019276E+01  0.51109989000E-03 0.  1.
     -623    1    1    2    0    0 -0.25138740691E-02 -0.67480955477E-02  0.57056201180E-03  0.25126701038E+02  0.25126700000E+02 0. -1.
     -611    1    3    3    0    0 -0.22134239780E-01  0.15019829096E-02  0.17158121385E+01  0.17159846955E+01  0.10000000000E-01 0.  1.
      611    1    3    3    0    0  0.15622631414E-01 -0.39020378587E-01  0.61007593548E+01  0.61009123385E+01  0.10000000000E-01 0. -1.
</event>
<event>
 7   0  0.6206631E-02  0.9118800E+02  0.7818608E-02  0.1180000E+00
       11   -1    0    0    0    0  0.00000000000E+00  0.00000000000E+00  0.11999999989E+02  0.12000000000E+02  0.51109989000E-03 0. -1.
     -623   -1    0    0    0    0  0.00000000000E+00  0.00000000000E+00  0.42561509872E-11  0.25126700000E+02  0.25126700000E+02 0. -1.
      622    2    1    2    0    0  0.74681355616E-04 -0.17931505638E-02  0.11818308720E+02  0.11818332832E+02  0.23805396613E-01 0.  0.
       11    1    1    2    0    0  0.20194278776E-03  0.17767230574E-02  0.18165764729E+00  0.18166716701E+00  0.51109989000E-03 0. -1.
     -623    1    1    2    0    0 -0.27662414338E-03  0.16427506396E-04  0.33622012621E-04  0.25126700002E+02  0.25126700000E+02 0. -1.
     -611    1    3    3    0    0  0.28079836425E-02 -0.55534932117E-02  0.78326298632E+01  0.78326387189E+01  0.10000000000E-01 0. -1.
      611    1    3    3    0    0 -0.27333022869E-02  0.37603426478E-02  0.39856788568E+01  0.39856941127E+01  0.10000000000E-01 0. -1.
</event>
<event>
 7   0  0.6206631E-02  0.9118800E+02  0.7818608E-02  0.1180000E+00
       11   -1    0    0    0    0  0.00000000000E+00  0.00000000000E+00  0.11999999989E+02  0.12000000000E+02  0.51109989000E-03 0. -1.
     -623   -1    0    0    0    0  0.00000000000E+00  0.00000000000E+00  0.42561509872E-11  0.25126700000E+02  0.25126700000E+02 0.  1.
      622    2    1    2    0    0  0.41502825663E-02  0.71497443707E-02  0.11669937847E+02  0.11670231259E+02  0.82340367791E-01 0.  0.
       11    1    1    2    0    0 -0.28633606760E-02 -0.78978975027E-02  0.32966127269E+00  0.32976869402E+00  0.51109989000E-03 0. -1.
     -623    1    1    2    0    0 -0.12869218902E-02  0.74815313198E-03  0.40086948963E-03  0.25126700047E+02  0.25126700000E+02 0.  1.
     -611    1    3    3    0    0 -0.22543911573E-01 -0.27970298787E-01  0.48425237764E+01  0.48426673529E+01  0.10000000000E-01 0.  1.
      611    1    3    3    0    0  0.26694194139E-01  0.35120043158E-01  0.68274140705E+01  0.68275639058E+01  0.10000000000E-01 0. -1.
</event>
<event>
 7   0  0.6206631E-02  0.9118800E+02  0.7818608E-02  0.1180000E+00
       11   -1    0    0    0    0  0.00000000000E+00  0.00000000000E+00  0.11999999989E+02  0.12000000000E+02  0.51109989000E-03 0.  1.
     -623   -1    0    0    0    0  0.00000000000E+00  0.00000000000E+00  0.42561509872E-11  0.25126700000E+02  0.25126700000E+02 0. -1.
      622    2    1    2    0    0  0.43521350750E-02  0.10391382480E-01  0.11981884619E+02  0.11982281179E+02  0.96831368433E-01 0.  0.
       11    1    1    2    0    0  0.10318166179E-01  0.23394401528E-02  0.14194401036E-01  0.17711007240E-01  0.51109989000E-03 0.  1.
     -623    1    1    2    0    0 -0.14670301254E-01 -0.12730822633E-01  0.39209692947E-02  0.25126707814E+02  0.25126700000E+02 0. -1.
     -611    1    3    3    0    0 -0.40510150888E-02 -0.11788052522E-01  0.34670079598E+00  0.34706888486E+00  0.10000000000E-01 0. -1.
      611    1    3    3    0    0  0.84031501638E-02  0.22179435001E-01  0.11635183823E+02  0.11635212294E+02  0.10000000000E-01 0.  1.
</event>
<event>
 7   0  0.6206631E-02  0.9118800E+02  0.7818608E-02  0.1180000E+00
       11   -1    0    0    0    0  0.00000000000E+00  0.00000000000E+00  0.11999999989E+02  0.12000000000E+02  0.51109989000E-03 0.  1.
     -623   -1    0    0    0    0  0.00000000000E+00  0.00000000000E+00  0.42561509872E-11  0.25126700000E+02  0.25126700000E+02 0.  1.
      622    2    1    2    0    0 -0.11704164430E-02 -0.10819744474E-01  0.11913898518E+02  0.11914159713E+02  0.78136669212E-01 0.  0.
       11    1    1    2    0    0 -0.18145628598E-02 -0.83103232206E-03  0.85812679244E-01  0.85837406736E-01  0.51109989000E-03 0.  1.
     -623    1    1    2    0    0  0.29849793029E-02  0.11650776796E-01  0.28879195628E-03  0.25126702880E+02  0.25126700000E+02 0.  1.
     -611    1    3    3    0    0  0.28403290077E-01 -0.27595931834E-01  0.48367320638E+01  0.48369045203E+01  0.10000000000E-01 0.  1.
      611    1    3    3    0    0 -0.29573706520E-01  0.16776187360E-01  0.70771664541E+01  0.70772551928E+01  0.10000000000E-01 0.  1.
</event>
<event>
 7   0  0.6206631E-02  0.9118800E+02  0.7818608E-02  0.1180000E+00
       11   -1    0    0    0    0  0.00000000000E+00  0.00000000000E+00  0.11999999989E+02  0.12000000000E+02  0.51109989000E-03 0. -1.
     -623   -1    0    0    0    0  0.00000000000E+00  0.00000000000E+00  0.42561509872E-11  0.25126700000E+02  0.25126700000E+02 0.  1.
      622    2    1    2    0    0 -0.26390954643E-01 -0.46371280720E-02  0.10902311963E+02  0.10902719555E+02  0.90385721445E-01 0.  0.
       11    1    1    2    0    0  0.23943335310E-01 -0.29154425895E-02  0.10970139280E+01  0.10972791817E+01  0.51109989000E-03 0. -1.
     -623    1    1    2    0    0  0.24476193338E-02  0.75525706615E-02  0.67409848645E-03  0.25126701263E+02  0.25126700000E+02 0.  1.
     -611    1    3    3    0    0 -0.45275819674E-01  0.10773474365E-01  0.97094086611E+01  0.97095253496E+01  0.10000000000E-01 0. -1.
      611    1    3    3    0    0  0.18884865031E-01 -0.15410602437E-01  0.11929033016E+01  0.11931942054E+01  0.10000000000E-01 0.  1.
</event>
<event>
 7   0  0.6206631E-02  0.9118800E+02  0.7818608E-02  0.1180000E+00
       11   -1    0    0    0    0  0.00000000000E+00  0.00000000000E+00  0.11999999989E+02  0.12000000000E+02  0.51109989000E-03 0. -1.
     -623   -1    0    0    0    0  0.00000000000E+00  0.00000000000E+00  0.42561509872E-11  0.25126700000E+02  0.25126700000E+02 0. -1.
      622    2    1    2    0    0  0.11411431037E-02 -0.20782043758E-01  0.11777029058E+02  0.11777521947E+02  0.10571946623E+00 0.  0.
       11    1    1    2    0    0  0.23897684559E-02  0.22064643491E-01  0.22136737657E+00  0.22247772049E+00  0.51109989000E-03 0. -1.
     -623    1    1    2    0    0 -0.35309115596E-02 -0.12825997325E-02  0.16035549759E-02  0.25126700332E+02  0.25126700000E+02 0. -1.
     -611    1    3    3    0    0  0.10362542415E-01 -0.53315141747E-01  0.99463203511E+01  0.99464736672E+01  0.10000000000E-01 0. -1.
      611    1    3    3    0    0 -0.92213993116E-02  0.32533097989E-01  0.18307087065E+01  0.18310482803E+01  0.10000000000E-01 0.  1.
</event>
<event>
 7   0  0.6206631E-02  0.9118800E+02  0.7818608E-02  0.1180000E+00
       11   -1    0    0    0    0  0.00000000000E+00  0.00000000000E+00  0.11999999989E+02  0.12000000000E+02  0.51109989000E-03 0.  1.
     -623   -1    0    0    0    0  0.00000000000E+00  0.00000000000E+00  0.42561509872E-11  0.25126700000E+02  0.25126700000E+02 0.  1.
      622    2    1    2    0    0  0.44831337996E-02 -0.10249536922E-01  0.11974514365E+02  0.11974843468E+02  0.88071883513E-01 0.  0.
       11    1    1    2    0    0 -0.26055808205E-02  0.10193654028E-01  0.22844687329E-01  0.25156323184E-01  0.51109989000E-03 0.  1.
     -623    1    1    2    0    0 -0.18775529791E-02  0.55882894371E-04  0.26409370840E-02  0.25126700209E+02  0.25126700000E+02 0.  1.
     -611    1    3    3    0    0 -0.32922580292E-02 -0.44492774543E-01  0.88070710786E+01  0.88071897578E+01  0.10000000000E-01 0.  1.
      611    1    3    3    0    0  0.77753918287E-02  0.34243237622E-01  0.31674432861E+01  0.31676537100E+01  0.10000000000E-01 0. -1.
</event>
<event>
 7   0  0.6206631E-02  0.9118800E+02  0.7818608E-02  0.1180000E+00
       11   -1    0    0    0    0  0.00000000000E+00  0.00000000000E+00  0.11999999989E+02  0.12000000000E+02  0.51109989000E-03 0.  1.
     -623   -1    0    0    0    0  0.00000000000E+00  0.00000000000E+00  0.42561509872E-11  0.25126700000E+02  0.25126700000E+02 0. -1.
      622    2    1    2    0    0  0.63496851988E-01  0.40272071271E-01  0.76187451328E+01  0.76209200489E+01  0.16580501999E+00 0.  0.
       11    1    1    2    0    0 -0.60202555342E-01 -0.46163449878E-01  0.43784216569E+01  0.43790788847E+01  0.51109989000E-03 0.  1.
     -623    1    1    2    0    0 -0.32942966455E-02  0.58913786061E-02  0.28331994854E-02  0.25126701066E+02  0.25126700000E+02 0. -1.
     -611    1    3    3    0    0  0.32084878360E-01  0.63209098526E-01  0.71760468604E+01  0.71764039304E+01  0.10000000000E-01 0. -1.
      611    1    3    3    0    0  0.31411973627E-01 -0.22937027255E-01  0.44269827234E+00  0.44451611853E+00  0.10000000000E-01 0.  1.
</event>
<event>
 7   0  0.6206631E-02  0.9118800E+02  0.7818608E-02  0.1180000E+00
       11   -1    0    0    0    0  0.00000000000E+00  0.00000000000E+00  0.11999999989E+02  0.12000000000E+02  0.51109989000E-03 0.  1.
     -623   -1    0    0    0    0  0.00000000000E+00  0.00000000000E+00  0.42561509872E-11  0.25126700000E+02  0.25126700000E+02 0.  1.
      622    2    1    2    0    0  0.41244858104E-01  0.20493691022E-01  0.43329125112E+01  0.43341872496E+01  0.94483624970E-01 0.  0.
       11    1    1    2    0    0 -0.49105235413E-01  0.46957392324E-01  0.76654198071E+01  0.76657209316E+01  0.51109989000E-03 0.  1.
     -623    1    1    2    0    0  0.78603773096E-02 -0.67451083346E-01  0.16676708407E-02  0.25126791819E+02  0.25126700000E+02 0.  1.
     -611    1    3    3    0    0 -0.71967348786E-02  0.26366511412E-02  0.83129315527E-01  0.84078701358E-01  0.10000000000E-01 0.  1.
      611    1    3    3    0    0  0.48441592982E-01  0.17857039881E-01  0.42497831957E+01  0.42501085483E+01  0.10000000000E-01 0.  1.
</event>
<event>
 7   0  0.6206631E-02  0.9118800E+02  0.7818608E-02  0.1180000E+00
       11   -1    0    0    0    0  0.00000000000E+00  0.00000000000E+00  0.11999999989E+02  0.12000000000E+02  0.51109989000E-03 0.  1.
     -623   -1    0    0    0    0  0.00000000000E+00  0.00000000000E+00  0.42561509872E-11  0.25126700000E+02  0.25126700000E+02 0. -1.
      622    2    1    2    0    0 -0.20930136959E-02  0.38249470202E-02  0.11924631237E+02  0.11925057496E+02  0.10073292084E+00 0.  0.
       11    1    1    2    0    0 -0.85475232296E-03 -0.13836176810E-02  0.74922816323E-01  0.74942208590E-01  0.51109989000E-03 0.  1.
     -623    1    1    2    0    0  0.29477660189E-02 -0.24413293392E-02  0.44593534300E-03  0.25126700295E+02  0.25126700000E+02 0. -1.
     -611    1    3    3    0    0  0.11643125159E-01  0.45441690292E-01  0.84407498736E+01  0.84408861465E+01  0.10000000000E-01 0. -1.
      611    1    3    3    0    0 -0.13736138855E-01 -0.41616743272E-01  0.34838813638E+01  0.34841713494E+01  0.10000000000E-01 0.  1.
</event>
<event>
 7   0  0.6206631E-02  0.9118800E+02  0.7818608E-02  0.1180000E+00
       11   -1    0    0    0    0  0.00000000000E+00  0.00000000000E+00  0.11999999989E+02  0.12000000000E+02  0.51109989000E-03 0. -1.
     -623   -1    0    0    0    0  0.00000000000E+00  0.00000000000E+00  0.42561509872E-11  0.25126700000E+02  0.25126700000E+02 0.  1.
      622    2    1    2    0    0  0.40214204521E-02 -0.89556041997E-02  0.10840775841E+02  0.10841143449E+02  0.88736022849E-01 0.  0.
       11    1    1    2    0    0 -0.11188990734E-02  0.66227030012E-02  0.11588366947E+01  0.11588562716E+01  0.51109989000E-03 0. -1.
     -623    1    1    2    0    0 -0.29025213788E-02  0.23329011984E-02  0.38745343241E-03  0.25126700279E+02  0.25126700000E+02 0.  1.
     -611    1    3    3    0    0 -0.25998525611E-01 -0.36586077910E-01  0.47422998446E+01  0.47425227759E+01  0.10000000000E-01 0.  1.
      611    1    3    3    0    0  0.30019946063E-01  0.27630473710E-01  0.60984759964E+01  0.60986206735E+01  0.10000000000E-01 0. -1.
</event>
<event>
 7   0  0.6206631E-02  0.9118800E+02  0.7818608E-02  0.1180000E+00
       11   -1    0    0    0    0  0.00000000000E+00  0.00000000000E+00  0.11999999989E+02  0.12000000000E+02  0.51109989000E-03 0. -1.
     -623   -1    0    0    0    0  0.00000000000E+00  0.00000000000E+00  0.42561509872E-11  0.25126700000E+02  0.25126700000E+02 0.  1.
      622    2    1    2    0    0 -0.52218322439E-03  0.30923572356E-02  0.11844808923E+02  0.11845672300E+02  0.14298244126E+00 0.  0.
       11    1    1    2    0    0  0.65045204620E-02 -0.42087778324E-02  0.15413150538E+00  0.15432694117E+00  0.51109989000E-03 0. -1.
     -623    1    1    2    0    0 -0.59823372376E-02  0.11164205968E-02  0.10595610951E-02  0.25126700759E+02  0.25126700000E+02 0.  1.
     -611    1    3    3    0    0  0.39071395393E-01 -0.48766568641E-01  0.32889697154E+01  0.32895784747E+01  0.10000000000E-01 0.  1.
      611    1    3    3    0    0 -0.39593578617E-01  0.51858925877E-01  0.85558392072E+01  0.85560938249E+01  0.10000000000E-01 0. -1.
</event>
<event>
 7   0  0.6206631E-02  0.9118800E+02  0.7818608E-02  0.1180000E+00
       11   -1    0    0    0    0  0.00000000000E+00  0.00000000000E+00  0.11999999989E+02  0.12000000000E+02  0.51109989000E-03 0. -1.
     -623   -1    0    0    0    0  0.00000000000E+00  0.00000000000E+00  0.42561509872E-11  0.25126700000E+02  0.25126700000E+02 0.  1.
      622    2    1    2    0    0  0.41408800117E-01 -0.59490801430E-01  0.47733839706E+01  0.47753808045E+01  0.11753064557E+00 0.  0.
       11    1    1    2    0    0 -0.33281570273E-01  0.13633874344E-01  0.72244864032E+01  0.72245759458E+01  0.51109989000E-03 0. -1.
     -623    1    1    2    0    0 -0.81272298441E-02  0.45856927087E-01  0.21296152559E-02  0.25126743250E+02  0.25126700000E+02 0.  1.
     -611    1    3    3    0    0 -0.24946768398E-01  0.14829974995E-01  0.19097508699E+01  0.19099975535E+01  0.10000000000E-01 0. -1.
      611    1    3    3    0    0  0.66355568515E-01 -0.74320776425E-01  0.28636331007E+01  0.28653832509E+01  0.10000000000E-01 0.  1.
</event>
<event>
 7   0  0.6206631E-02  0.9118800E+02  0.7818608E-02  0.1180000E+00
       11   -1    0    0    0    0  0.00000000000E+00  0.00000000000E+00  0.11999999989E+02  0.12000000000E+02  0.51109989000E-03 0. -1.
     -623   -1    0    0    0    0  0.00000000000E+00  0.00000000000E+00  0.42561509872E-11  0.25126700000E+02  0.25126700000E+02 0.  1.
      622    2    1    2    0    0 -0.95004603951E-02 -0.49634653829E-02  0.11361734046E+02  0.11362055349E+02  0.84772265748E-01 0.  0.
       11    1    1    2    0    0 -0.77284116888E-02  0.13299692942E-02  0.63789007200E+00  0.63793847850E+00  0.51109989000E-03 0. -1.
     -623    1    1    2    0    0  0.17228872084E-01  0.36334960888E-02  0.37587132876E-03  0.25126706172E+02  0.25126700000E+02 0.  1.
     -611    1    3    3    0    0 -0.14556931328E-01 -0.24433026246E-01  0.15370827834E+01  0.15373784050E+01  0.10000000000E-01 0.  1.
      611    1    3    3    0    0  0.50564709328E-02  0.19469560863E-01  0.98246512623E+01  0.98246769442E+01  0.10000000000E-01 0. -1.
</event>
<event>
 7   0  0.6206631E-02  0.9118800E+02  0.7818608E-02  0.1180000E+00
       11   -1    0    0    0    0  0.00000000000E+00  0.00000000000E+00  0.11999999989E+02  0.12000000000E+02  0.51109989000E-03 0. -1.
     -623   -1    0    0    0    0  0.00000000000E+00  0.00000000000E+00  0.42561509872E-11  0.25126700000E+02  0.25126700000E+02 0. -1.
      622    2    1    2    0    0 -0.59145097217E-01 -0.16283351500E-01  0.89182034745E+01  0.89188771756E+01  0.90849161929E-01 0.  0.
       11    1    1    2    0    0  0.32116895023E-01  0.96474566757E-01  0.30793018519E+01  0.30809802001E+01  0.51109989000E-03 0. -1.
     -623    1    1    2    0    0  0.27028202194E-01 -0.80191215258E-01  0.24946627071E-02  0.25126842624E+02  0.25126700000E+02 0. -1.
     -611    1    3    3    0    0  0.16538390163E-01 -0.95953679644E-02  0.73962929199E+00  0.73994397018E+00  0.10000000000E-01 0.  1.
      611    1    3    3    0    0 -0.75683487380E-01 -0.66879835351E-02  0.81785741825E+01  0.81789332054E+01  0.10000000000E-01 0. -1.
</event>
<event>
 7   0  0.6206631E-02  0.9118800E+02  0.7818608E-02  0.1180000E+00
       11   -1    0    0    0    0  0.00000000000E+00  0.00000000000E+00  0.11999999989E+02  0.12000000000E+02  0.51109989000E-03 0. -1.
     -623   -1    0    0    0    0  0.00000000000E+00  0.00000000000E+00  0.42561509872E-11  0.25126700000E+02  0.25126700000E+02 0. -1.
      622    2    1    2    0    0 -0.36124430416E-02  0.35650277536E-02  0.11992849982E+02  0.11993498894E+02  0.12465656474E+00 0.  0.
       11    1    1    2    0    0 -0.21383308627E-03  0.33737383141E-02  0.55279650819E-02  0.64998042955E-02  0.51109989000E-03 0. -1.
     -623    1    1    2    0    0  0.38262761279E-02 -0.69387660677E-02  0.16220416218E-02  0.25126701302E+02  0.25126700000E+02 0. -1.
     -611    1    3    3    0    0  0.58700836873E-02  0.56180465500E-01  0.87895025453E+01  0.87896897384E+01  0.10000000000E-01 0. -1.
      611    1    3    3    0    0 -0.94825267289E-02 -0.52615437746E-01  0.32033474371E+01  0.32038091556E+01  0.10000000000E-01 0.  1.
</event>
<event>
 7   0  0.6206631E-02  0.9118800E+02  0.7818608E-02  0.1180000E+00
       11   -1    0    0    0    0  0.00000000000E+00  0.00000000000E+00  0.11999999989E+02  0.12000000000E+02  0.51109989000E-03 0. -1.
     -623   -1    0    0    0    0  0.00000000000E+00  0.00000000000E+00  0.42561509872E-11  0.25126700000E+02  0.25126700000E+02 0. -1.
      622    2    1    2    0    0 -0.38165700968E-02  0.20840652024E-02  0.11970416672E+02  0.11970950444E+02  0.11296159158E+00 0.  0.
       11    1    1    2    0    0  0.24186853677E-02 -0.47892295788E-02  0.28544995363E-01  0.29049350118E-01  0.51109989000E-03 0. -1.
     -623    1    1    2    0    0  0.13978847291E-02  0.27051643764E-02  0.10383218037E-02  0.25126700206E+02  0.25126700000E+02 0. -1.
     -611    1    3    3    0    0  0.96756936603E-02 -0.50998696061E-01  0.41696018600E+01  0.41699369488E+01  0.10000000000E-01 0.  1.
      611    1    3    3    0    0 -0.13492263757E-01  0.53082761264E-01  0.78008148119E+01  0.78010134951E+01  0.10000000000E-01 0. -1.
</event>
<event>
 7   0  0.6206631E-02  0.9118800E+02  0.7818608E-02  0.1180000E+00
       11   -1    0    0    0    0  0.00000000000E+00  0.00000000000E+00  0.11999999989E+02  0.12000000000E+02  0.51109989000E-03 0.  1.
     -623   -1    0    0    0    0  0.00000000000E+00  0.00000000000E+00  0.42561509872E-11  0.25126700000E+02  0.25126700000E+02 0.  1.
      622    2    1    2    0    0 -0.56148075061E-02  0.14275689436E-02  0.11928931071E+02  0.11929535520E+02  0.11994862063E+00 0.  0.
       11    1    1    2    0    0  0.35320082115E-02 -0.73666277132E-02  0.69986606388E-01  0.70463668530E-01  0.51109989000E-03 0.  1.
     -623    1    1    2    0    0  0.20827992947E-02  0.59390587696E-02  0.10823121780E-02  0.25126700812E+02  0.25126700000E+02 0.  1.
     -611    1    3    3    0    0  0.35085862213E-01  0.16994424237E-01  0.15948914644E+01  0.15953992013E+01  0.10000000000E-01 0. -1.
      611    1    3    3    0    0 -0.40700669719E-01 -0.15566855293E-01  0.10334039606E+02  0.10334136319E+02  0.10000000000E-01 0.  1.
</event>
<event>
 7   0  0.6206631E-02  0.9118800E+02  0.7818608E-02  0.1180000E+00
       11   -1    0    0    0    0  0.00000000000E+00  0.00000000000E+00  0.11999999989E+02  0.12000000000E+02  0.51109989000E-03 0. -1.
     -623   -1    0    0    0    0  0.00000000000E+00  0.00000000000E+00  0.42561509872E-11  0.25126700000E+02  0.25126700000E+02 0.  1.
      622    2    1    2    0    0 -0.20371451400E-02 -0.96947318656E-03  0.11997192536E+02  0.11997724803E+02  0.11298937073E+00 0.  0.
       11    1    1    2    0    0 -0.19254756854E-02  0.38793617967E-03  0.10274281911E-02  0.22748149170E-02  0.51109989000E-03 0. -1.
     -623    1    1    2    0    0  0.39626208254E-02  0.58153700689E-03  0.17800244671E-02  0.25126700382E+02  0.25126700000E+02 0.  1.
     -611    1    3    3    0    0  0.92401629458E-03 -0.36574383404E-01  0.10513683394E+02  0.10513751807E+02  0.10000000000E-01 0. -1.
      611    1    3    3    0    0 -0.29611614346E-02  0.35604910218E-01  0.14835091422E+01  0.14839729960E+01  0.10000000000E-01 0.  1.
</event>
<event>
 7   0  0.6206631E-02  0.9118800E+02  0.7818608E-02  0.1180000E+00
       11   -1    0    0    0    0  0.00000000000E+00  0.00000000000E+00  0.11999999989E+02  0.12000000000E+02  0.51109989000E-03 0. -1.
     -623   -1    0    0    0    0  0.00000000000E+00  0.00000000000E+00  0.42561509872E-11  0.25126700000E+02  0.25126700000E+02 0. -1.
      622    2    1    2    0    0  0.19502452631E-02 -0.13434859004E-01  0.11636805047E+02  0.11637154680E+02  0.89179925828E-01 0.  0.
       11    1    1    2    0    0 -0.37140073017E-02  0.14285691684E-01  0.36254451921E+00  0.36284523488E+00  0.51109989000E-03 0. -1.
     -623    1    1    2    0    0  0.17637620386E-02 -0.85083267965E-03  0.65042309793E-03  0.25126700085E+02  0.25126700000E+02 0. -1.
     -611    1    3    3    0    0 -0.39981194799E-02 -0.48904600850E-01  0.51906667225E+01  0.51909082702E+01  0.10000000000E-01 0. -1.
      611    1    3    3    0    0  0.59483647430E-02  0.35469741846E-01  0.64461383243E+01  0.64462464102E+01  0.10000000000E-01 0.  1.
</event>
<event>
 7   0  0.6206631E-02  0.9118800E+02  0.7818608E-02  0.1180000E+00
       11   -1    0    0    0    0  0.00000000000E+00  0.00000000000E+00  0.11999999989E+02  0.12000000000E+02  0.51109989000E-03 0.  1.
     -623   -1    0    0    0    0  0.00000000000E+00  0.00000000000E+00  0.42561509872E-11  0.25126700000E+02  0.25126700000E+02 0. -1.
      622    2    1    2    0    0 -0.74008598272E-01  0.13156836273E-01  0.98192990618E+01  0.98203465466E+01  0.12215503983E+00 0.  0.
       11    1    1    2    0    0 -0.45393204694E-01 -0.18791171451E-01  0.21788151742E+01  0.21793690545E+01  0.51109989000E-03 0.  1.
     -623    1    1    2    0    0  0.11940180297E+00  0.56343351772E-02  0.18857530355E-02  0.25126984399E+02  0.25126700000E+02 0. -1.
     -611    1    3    3    0    0 -0.10686277357E+00  0.72310883527E-02  0.78822267237E+01  0.78829607423E+01  0.10000000000E-01 0.  1.
      611    1    3    3    0    0  0.32854175299E-01  0.59257479206E-02  0.19370723381E+01  0.19373858043E+01  0.10000000000E-01 0. -1.
</event>
<event>
 7   0  0.6206631E-02  0.9118800E+02  0.7818608E-02  0.1180000E+00
       11   -1    0    0    0    0  0.00000000000E+00  0.00000000000E+00  0.11999999989E+02  0.12000000000E+02  0.51109989000E-03 0. -1.
     -623   -1    0    0    0    0  0.00000000000E+00  0.00000000000E+00  0.42561509872E-11  0.25126700000E+02  0.25126700000E+02 0. -1.
      622    2    1    2    0    0 -0.10544975111E-02 -0.60771369213E-03  0.11996819682E+02  0.11996909695E+02  0.46456988909E-01 0.  0.
       11    1    1    2    0    0 -0.25406982769E-02  0.10007216897E-02  0.13528314157E-02  0.30899785824E-02  0.51109989000E-03 0. -1.
     -623    1    1    2    0    0  0.35951957880E-02 -0.39300799755E-03  0.18274754192E-02  0.25126700327E+02  0.25126700000E+02 0. -1.
     -611    1    3    3    0    0  0.18876501447E-01 -0.67557373038E-02  0.71051121157E+01  0.71051474396E+01  0.10000000000E-01 0. -1.
      611    1    3    3    0    0 -0.19930998958E-01  0.61480236116E-02  0.48917075665E+01  0.48917622550E+01  0.10000000000E-01 0. -1.
</event>
<event>
 7   0  0.6206631E-02  0.9118800E+02  0.7818608E-02  0.1180000E+00
       11   -1    0    0    0    0  0.00000000000E+00  0.00000000000E+00  0.11999999989E+02  0.12000000000E+02  0.51109989000E-03 0.  1.
     -623   -1    0    0    0    0  0.00000000000E+00  0.00000000000E+00  0.42561509872E-11  0.25126700000E+02  0.25126700000E+02 0. -1.
      622    2    1    2    0    0  0.12462641312E-01 -0.56822103311E-01  0.66897995700E+01  0.66907802259E+01  0.98679658694E-01 0.  0.
       11    1    1    2    0    0 -0.60359949459E-02  0.13323329270E-01  0.53091611056E+01  0.53091812788E+01  0.51109989000E-03 0.  1.
     -623    1    1    2    0    0 -0.64266463659E-02  0.43498774041E-01  0.10393135186E-02  0.25126738495E+02  0.25126700000E+02 0. -1.
     -611    1    3    3    0    0  0.51169680924E-01 -0.52817749334E-01  0.41708454433E+01  0.41715056949E+01  0.10000000000E-01 0. -1.
      611    1    3    3    0    0 -0.38707039612E-01 -0.40043539770E-02  0.25189541267E+01  0.25192745309E+01  0.10000000000E-01 0.  1.
</event>
<event>
 7   0  0.6206631E-02  0.9118800E+02  0.7818608E-02  0.1180000E+00
       11   -1    0    0    0    0  0.00000000000E+00  0.00000000000E+00  0.11999999989E+02  0.12000000000E+02  0.51109989000E-03 0.  1.
     -623   -1    0    0    0    0  0.00000000000E+00  0.00000000000E+00  0.42561509872E-11  0.25126700000E+02  0.25126700000E+02 0.  1.
      622    2    1    2    0    0 -0.97200438032E-04  0.10534105317E-01  0.11859838583E+02  0.11860008801E+02  0.62662489518E-01 0.  0.
       11    1    1    2    0    0  0.35360616921E-02 -0.76187893898E-02  0.13973764894E+00  0.13999079054E+00  0.51109989000E-03 0.  1.
     -623    1    1    2    0    0 -0.34388612541E-02 -0.29153159271E-02  0.42375756835E-03  0.25126700408E+02  0.25126700000E+02 0.  1.
     -611    1    3    3    0    0  0.52781854834E-02  0.28180021563E-01  0.10092332302E+02  0.10092377978E+02  0.10000000000E-01 0.  1.
      611    1    3    3    0    0 -0.53753859214E-02 -0.17645916246E-01  0.17675062811E+01  0.17676308231E+01  0.10000000000E-01 0.  1.
</event>
<event>
 7   0  0.6206631E-02  0.9118800E+02  0.7818608E-02  0.1180000E+00
       11   -1    0    0    0    0  0.00000000000E+00  0.00000000000E+00  0.11999999989E+02  0.12000000000E+02  0.51109989000E-03 0. -1.
     -623   -1    0    0    0    0  0.00000000000E+00  0.00000000000E+00  0.42561509872E-11  0.25126700000E+02  0.25126700000E+02 0. -1.
      622    2    1    2    0    0 -0.52383456172E-02 -0.35055716603E-05  0.11997251062E+02  0.11997622377E+02  0.94245531481E-01 0.  0.
       11    1    1    2    0    0  0.54115087716E-04 -0.80732776473E-03  0.21758965911E-02  0.23770687152E-02  0.51109989000E-03 0. -1.
     -623    1    1    2    0    0  0.51842305295E-02  0.81083333640E-03  0.57303084417E-03  0.25126700554E+02  0.25126700000E+02 0. -1.
     -611    1    3    3    0    0 -0.68080005567E-02 -0.20774240291E-01  0.11224956416E+02  0.11224982159E+02  0.10000000000E-01 0. -1.
      611    1    3    3    0    0  0.15696549395E-02  0.20770734719E-01  0.77229464567E+00  0.77264021832E+00  0.10000000000E-01 0. -1.
</event>
<event>
 7   0  0.6206631E-02  0.9118800E+02  0.7818608E-02  0.1180000E+00
       11   -1    0    0    0    0  0.00000000000E+00  0.00000000000E+00  0.11999999989E+02  0.12000000000E+02  0.51109989000E-03 0.  1.
     -623   -1    0    0    0    0  0.00000000000E+00  0.00000000000E+00  0.42561509872E-11  0.25126700000E+02  0.25126700000E+02 0.  1.
      622    2    1    2    0    0  0.11132681124E-03 -0.18953741818E-02  0.11917822279E+02  0.11918261657E+02  0.10232020630E+00 0.  0.
       11    1    1    2    0    0  0.22957561673E-03  0.44757360746E-02  0.81613648196E-01  0.81738202288E-01  0.51109989000E-03 0.  1.
     -623    1    1    2    0    0 -0.34090242797E-03 -0.25803618927E-02  0.56406145087E-03  0.25126700141E+02  0.25126700000E+02 0.  1.
     -611    1    3    3    0    0  0.15819591853E-01  0.39075677811E-01  0.88834676990E+01  0.88835733535E+01  0.10000000000E-01 0.  1.
      611    1    3    3    0    0 -0.15708265042E-01 -0.40971051993E-01  0.30343545805E+01  0.30346883031E+01  0.10000000000E-01 0.  1.
</event>
<event>
 7   0  0.6206631E-02  0.9118800E+02  0.7818608E-02  0.1180000E+00
       11   -1    0    0    0    0  0.00000000000E+00  0.00000000000E+00  0.11999999989E+02  0.12000000000E+02  0.51109989000E-03 0. -1.
     -623   -1    0    0    0    0  0.00000000000E+00  0.00000000000E+00  0.42561509872E-11  0.25126700000E+02  0.25126700000E+02 0.  1.
      622    2    1    2    0    0  0.10601315853E-01  0.24371581915E-01  0.45197781359E+01  0.45207622027E+01  0.90499356570E-01 0.  0.
       11    1    1    2    0    0 -0.95065701871E-02 -0.23515120193E-01  0.74791947122E+01  0.74792377379E+01  0.51109989000E-03 0. -1.
     -623    1    1    2    0    0 -0.10947456657E-02 -0.85646172211E-03  0.10271410381E-02  0.25126700059E+02  0.25126700000E+02 0.  1.
     -611    1    3    3    0    0  0.10778028619E-01  0.56889536503E-01  0.24501916605E+01  0.24508961134E+01  0.10000000000E-01 0.  1.
      611    1    3    3    0    0 -0.17671276666E-03 -0.32517954587E-01  0.20695864753E+01  0.20698660893E+01  0.10000000000E-01 0. -1.
</event>
<event>
 7   0  0.6206631E-02  0.9118800E+02  0.7818608E-02  0.1180000E+00
       11   -1    0    0    0    0  0.00000000000E+00  0.00000000000E+00  0.11999999989E+02  0.12000000000E+02  0.51109989000E-03 0.  1.
     -623   -1    0    0    0    0  0.00000000000E+00  0.00000000000E+00  0.42561509872E-11  0.25126700000E+02  0.25126700000E+02 0.  1.
      622    2    1    2    0    0  0.22345703904E-01  0.71064769237E-02  0.11958056357E+02  0.11958593463E+02  0.11088710521E+00 0.  0.
       11    1    1    2    0    0 -0.23699399689E-01  0.83115616966E-03  0.33936340885E-01  0.41403971090E-01  0.51109989000E-03 0.  1.
     -623    1    1    2    0    0  0.13536957855E-02 -0.79376330934E-02  0.80072916949E-02  0.25126702566E+02  0.25126700000E+02 0.  1.
     -611    1    3    3    0    0  0.16130333499E-02  0.48085330380E-01  0.29088697632E+01  0.29092848090E+01  0.10000000000E-01 0. -1.
      611    1    3    3    0    0  0.20732670554E-01 -0.40978853456E-01  0.90491865933E+01  0.90493086538E+01  0.10000000000E-01 0.  1.
</event>
<event>
 7   0  0.6206631E-02  0.9118800E+02  0.7818608E-02  0.1180000E+00
       11   -1    0    0    0    0  0.00000000000E+00  0.00000000000E+00  0.11999999989E+02  0.12000000000E+02  0.51109989000E-03 0. -1.
     -623   -1    0    0    0    0  0.00000000000E+00  0.00000000000E+00  0.42561509872E-11  0.25126700000E+02  0.25126700000E+02 0. -1.
      622    2    1    2    0    0 -0.45628847759E-03 -0.73125597437E-03  0.11974789749E+02  0.11975230092E+02  0.10269125296E+00 0.  0.
       11    1    1    2    0    0 -0.72867865206E-03  0.69581802659E-04  0.24753772745E-01  0.24769866823E-01  0.51109989000E-03 0. -1.
     -623    1    1    2    0    0  0.11849671296E-02  0.66167417171E-03  0.45646753138E-03  0.25126700041E+02  0.25126700000E+02 0. -1.
     -611    1    3    3    0    0  0.29174427825E-01  0.19151060522E-01  0.17660542953E+01  0.17664273788E+01  0.10000000000E-01 0.  1.
      611    1    3    3    0    0 -0.29630716302E-01 -0.19882316497E-01  0.10208735454E+02  0.10208802714E+02  0.10000000000E-01 0. -1.
</event>
<event>
 7   0  0.6206631E-02  0.9118800E+02  0.7818608E-02  0.1180000E+00
       11   -1    0    0    0    0  0.00000000000E+00  0.00000000000E+00  0.11999999989E+02  0.12000000000E+02  0.51109989000E-03 0.  1.
     -623   -1    0    0    0    0  0.00000000000E+00  0.00000000000E+00  0.42561509872E-11  0.25126700000E+02  0.25126700000E+02 0.  1.
      622    2    1    2    0    0  0.29250182924E-01 -0.35390702027E-01  0.90812289408E+01  0.90818459217E+01  0.95384459130E-01 0.  0.
       11    1    1    2    0    0 -0.32875725784E-01  0.20348382065E-01  0.29178931096E+01  0.29181492988E+01  0.51109989000E-03 0.  1.
     -623    1    1    2    0    0  0.36255428595E-02  0.15042319962E-01  0.87793875007E-03  0.25126704780E+02  0.25126700000E+02 0.  1.
     -611    1    3    3    0    0  0.22368572980E-01 -0.22239083719E-01  0.87927816173E+01  0.87928438800E+01  0.10000000000E-01 0.  1.
      611    1    3    3    0    0  0.68816099436E-02 -0.13151618308E-01  0.28844732351E+00  0.28900204162E+00  0.10000000000E-01 0. -1.
</event>
<event>
 7   0  0.6206631E-02  0.9118800E+02  0.7818608E-02  0.1180000E+00
       11   -1    0    0    0    0  0.00000000000E+00  0.00000000000E+00  0.11999999989E+02  0.12000000000E+02  0.51109989000E-03 0.  1.
     -623   -1    0    0    0    0  0.00000000000E+00  0.00000000000E+00  0.42561509872E-11  0.25126700000E+02  0.25126700000E+02 0. -1.
      622    2    1    2    0    0 -0.51799051916E-01 -0.31753051555E-01  0.70108788603E+01  0.70118523657E+01  0.99798831412E-01 0.  0.
       11    1    1    2    0    0  0.30928304412E-01  0.45377152437E-01  0.49878329226E+01  0.49881352398E+01  0.51109989000E-03 0.  1.
     -623    1    1    2    0    0  0.20870747504E-01 -0.13624100882E-01  0.12882062370E-02  0.25126712394E+02  0.25126700000E+02 0. -1.
     -611    1    3    3    0    0 -0.93144033039E-02  0.24950639600E-01  0.71339493916E+00  0.71396192598E+00  0.10000000000E-01 0. -1.
      611    1    3    3    0    0 -0.42484648612E-01 -0.56703691155E-01  0.62974839212E+01  0.62978904398E+01  0.10000000000E-01 0.  1.
</event>
<event>
 7   0  0.6206631E-02  0.9118800E+02  0.7818608E-02  0.1180000E+00
       11   -1    0    0    0    0  0.00000000000E+00  0.00000000000E+00  0.11999999989E+02  0.12000000000E+02  0.51109989000E-03 0.  1.
     -623   -1    0    0    0    0  0.00000000000E+00  0.00000000000E+00  0.42561509872E-11  0.25126700000E+02  0.25126700000E+02 0. -1.
      622    2    1    2    0    0 -0.80136541497E-01 -0.24316314224E-01  0.89186686881E+01  0.89195675289E+01  0.94976763995E-01 0.  0.
       11    1    1    2    0    0  0.74537234999E-01  0.23647499435E-01  0.30794390085E+01  0.30804317671E+01  0.51109989000E-03 0.  1.
     -623    1    1    2    0    0  0.55993064976E-02  0.66881478850E-03  0.18922925633E-02  0.25126700704E+02  0.25126700000E+02 0. -1.
     -611    1    3    3    0    0  0.18354420726E-01 -0.10344087047E-01  0.10225189480E+01  0.10227848669E+01  0.10000000000E-01 0.  1.
      611    1    3    3    0    0 -0.98490962222E-01 -0.13972227177E-01  0.78961497401E+01  0.78967826620E+01  0.10000000000E-01 0. -1.
</event>
<event>
 7   0  0.6206631E-02  0.9118800E+02  0.7818608E-02  0.1180000E+00
       11   -1    0    0    0    0  0.00000000000E+00  0.00000000000E+00  0.11999999989E+02  0.12000000000E+02  0.51109989000E-03 0. -1.
     -623   -1    0    0    0    0  0.00000000000E+00  0.00000000000E+00  0.42561509872E-11  0.25126700000E+02  0.25126700000E+02 0.  1.
      622    2    1    2    0    0 -0.96358150346E-01  0.33480677995E-01  0.10693094869E+02  0.10694001496E+02  0.94785313186E-01 0.  0.
       11    1    1    2    0    0  0.92346321301E-01 -0.86413183717E-02  0.13026877934E+01  0.13059855526E+01  0.51109989000E-03 0. -1.
     -623    1    1    2    0    0  0.40118290452E-02 -0.24839359623E-01  0.42173265403E-02  0.25126712952E+02  0.25126700000E+02 0.  1.
     -611    1    3    3    0    0 -0.36882333027E-02  0.29219739817E-01  0.10638161420E+01  0.10642707269E+01  0.10000000000E-01 0.  1.
      611    1    3    3    0    0 -0.92669917043E-01  0.42609381780E-02  0.96292787273E+01  0.96297307686E+01  0.10000000000E-01 0. -1.
</event>
<event>
 7   0  0.6206631E-02  0.9118800E+02  0.7818608E-02  0.1180000E+00
       11   -1    0    0    0    0  0.00000000000E+00  0.00000000000E+00  0.11999999989E+02  0.12000000000E+02  0.51109989000E-03 0. -1.
     -623   -1    0    0    0    0  0.00000000000E+00  0.00000000000E+00  0.42561509872E-11  0.25126700000E+02  0.25126700000E+02 0. -1.
      622    2    1    2    0    0 -0.71644451160E-01 -0.71181548774E-01  0.60869654528E+01  0.60895739693E+01  0.14684332939E+00 0.  0.
       11    1    1    2    0    0  0.91529866140E-01  0.76214448213E-01  0.59092171092E+01  0.59104173679E+01  0.51109989000E-03 0. -1.
     -623    1    1    2    0    0 -0.19885414979E-01 -0.50328994391E-02  0.38174270914E-02  0.25126708663E+02  0.25126700000E+02 0. -1.
     -611    1    3    3    0    0 -0.10962629867E+00 -0.79514319379E-01  0.50651545167E+01  0.50669745145E+01  0.10000000000E-01 0.  1.
      611    1    3    3    0    0  0.37981847514E-01  0.83327706048E-02  0.10218109361E+01  0.10225994548E+01  0.10000000000E-01 0. -1.
</event>
<event>
 7   0  0.6206631E-02  0.9118800E+02  0.7818608E-02  0.1180000E+00
       11   -1    0    0    0    0  0.00000000000E+00  0.00000000000E+00  0.11999999989E+02  0.12000000000E+02  0.51109989000E-03 0.  1.
     -623   -1    0    0    0    0  0.00000000000E+00  0.00000000000E+00  0.42561509872E-11  0.25126700000E+02  0.25126700000E+02 0. -1.
      622    2    1    2    0    0 -0.87635444653E-02  0.15187458434E-01  0.10516158576E+02  0.10516505705E+02  0.83627660674E-01 0.  0.
       11    1    1    2    0    0  0.73038122869E-02 -0.16162208831E-01  0.14833881172E+01  0.14834942299E+01  0.51109989000E-03 0.  1.
     -623    1    1    2    0    0  0.14597321785E-02  0.97475039650E-03  0.45329604983E-03  0.25126700065E+02  0.25126700000E+02 0. -1.
     -611    1    3    3    0    0 -0.18744870796E-01  0.33617806494E-01  0.94942633143E+01  0.94943466025E+01  0.10000000000E-01 0. -1.
      611    1    3    3    0    0  0.99813263309E-02 -0.18430348060E-01  0.10218952616E+01  0.10221591022E+01  0.10000000000E-01 0. -1.
</event>
<event>
 7   0  0.6206631E-02  0.9118800E+02  0.7818608E-02  0.1180000E+00
       11   -1    0    0    0    0  0.00000000000E+00  0.00000000000E+00  0.11999999989E+02  0.12000000000E+02  0.51109989000E-03 0. -1.
     -623   -1    0    0    0    0  0.00000000000E+00  0.00000000000E+00  0.42561509872E-11  0.25126700000E+02  0.25126700000E+02 0.  1.
      622    2    1    2    0    0 -0.15655156546E-01 -0.24203230986E-01  0.88786803138E+01  0.88790628174E+01  0.77210878510E-01 0.  0.
       11    1    1    2    0    0  0.16038273136E-01  0.24111058846E-01  0.31208027836E+01  0.31209371741E+01  0.51109989000E-03 0. -1.
     -623    1    1    2    0    0 -0.38311658943E-03  0.92172140262E-04  0.51689159797E-03  0.25126700008E+02  0.25126700000E+02 0.  1.
     -611    1    3    3    0    0 -0.97167474751E-03  0.26675532231E-01  0.29791627333E+01  0.29792990988E+01  0.10000000000E-01 0. -1.
      611    1    3    3    0    0 -0.14683481799E-01 -0.50878763217E-01  0.58995175805E+01  0.58997637186E+01  0.10000000000E-01 0.  1.
</event>
<event>
 7   0  0.6206631E-02  0.9118800E+02  0.7818608E-02  0.1180000E+00
       11   -1    0    0    0    0  0.00000000000E+00  0.00000000000E+00  0.11999999989E+02  0.12000000000E+02  0.51109989000E-03 0. -1.
     -623   -1    0    0    0    0  0.00000000000E+00  0.00000000000E+00  0.42561509872E-11  0.25126700000E+02  0.25126700000E+02 0.  1.
      622    2    1    2    0    0 -0.10465491408E-02  0.10877601444E-01  0.11576247077E+02  0.11576542788E+02  0.82018994897E-01 0.  0.
       11    1    1    2    0    0 -0.39234091938E-02  0.24216717525E-01  0.42272061333E+00  0.42343219139E+00  0.51109989000E-03 0. -1.
     -623    1    1    2    0    0  0.49699583346E-02 -0.35094318969E-01  0.10322988376E-02  0.25126725021E+02  0.25126700000E+02 0.  1.
     -611    1    3    3    0    0 -0.32583415411E-01  0.49104364449E-02  0.91274743449E+01  0.91275393020E+01  0.10000000000E-01 0. -1.
      611    1    3    3    0    0  0.31536866270E-01  0.59671649989E-02  0.24487727320E+01  0.24490034859E+01  0.10000000000E-01 0.  1.
</event>
<event>
 7   0  0.6206631E-02  0.9118800E+02  0.7818608E-02  0.1180000E+00
       11   -1    0    0    0    0  0.00000000000E+00  0.00000000000E+00  0.11999999989E+02  0.12000000000E+02  0.51109989000E-03 0.  1.
     -623   -1    0    0    0    0  0.00000000000E+00  0.00000000000E+00  0.42561509872E-11  0.25126700000E+02  0.25126700000E+02 0.  1.
      622    2    1    2    0    0  0.29351895750E-02  0.23929261437E-02  0.11991621950E+02  0.11992070467E+02  0.10364721453E+00 0.  0.
       11    1    1    2    0    0  0.56130926314E-02  0.28670087991E-03  0.55677146271E-02  0.79277787300E-02  0.51109989000E-03 0.  1.
     -623    1    1    2    0    0 -0.85482822064E-02 -0.26796270236E-02  0.28103240591E-02  0.25126701754E+02  0.25126700000E+02 0.  1.
     -611    1    3    3    0    0  0.70678408852E-02 -0.67117360225E-02  0.22136192227E+00  0.22180194410E+00  0.10000000000E-01 0.  1.
      611    1    3    3    0    0 -0.41326513102E-02  0.91046621662E-02  0.11770260028E+02  0.11770268523E+02  0.10000000000E-01 0.  1.
</event>
<event>
 7   0  0.6206631E-02  0.9118800E+02  0.7818608E-02  0.1180000E+00
       11   -1    0    0    0    0  0.00000000000E+00  0.00000000000E+00  0.11999999989E+02  0.12000000000E+02  0.51109989000E-03 0.  1.
     -623   -1    0    0    0    0  0.00000000000E+00  0.00000000000E+00  0.42561509872E-11  0.25126700000E+02  0.25126700000E+02 0.  1.
      622    2    1    2    0    0 -0.22607612757E-02 -0.13523248417E-01  0.11937994829E+02  0.11938409880E+02  0.98599870330E-01 0.  0.
       11    1    1    2    0    0  0.71383275689E-02  0.15486210283E-01  0.59179522268E-01  0.61589410684E-01  0.51109989000E-03 0.  1.
     -623    1    1    2    0    0 -0.48775662933E-02 -0.19629618653E-02  0.28256374240E-02  0.25126700709E+02  0.25126700000E+02 0.  1.
     -611    1    3    3    0    0 -0.99722812110E-02 -0.49062524992E-01  0.40051212214E+01  0.40054466138E+01  0.10000000000E-01 0. -1.
      611    1    3    3    0    0  0.77115199353E-02  0.35539276575E-01  0.79328736080E+01  0.79329632665E+01  0.10000000000E-01 0.  1.
</event>
<event>
 7   0  0.6206631E-02  0.9118800E+02  0.7818608E-02  0.1180000E+00
       11   -1    0    0    0    0  0.00000000000E+00  0.00000000000E+00  0.11999999989E+02  0.12000000000E+02  0.51109989000E-03 0. -1.
     -623   -1    0    0    0    0  0.00000000000E+00  0.00000000000E+00  0.42561509872E-11  0.25126700000E+02  0.25126700000E+02 0.  1.
      622    2    1    2    0    0  0.95187017665E-03 -0.22747003308E-02  0.11983832272E+02  0.11984215521E+02  0.95810396770E-01 0.  0.
       11    1    1    2    0    0  0.72643346833E-03  0.19940332686E-02  0.15632744162E-01  0.15784415968E-01  0.51109989000E-03 0. -1.
     -623    1    1    2    0    0 -0.16783036450E-02  0.28066706227E-03  0.53497249076E-03  0.25126700063E+02  0.25126700000E+02 0.  1.
     -611    1    3    3    0    0  0.33672092953E-01  0.71633985348E-02  0.10009900331E+02  0.10009964523E+02  0.10000000000E-01 0. -1.
      611    1    3    3    0    0 -0.32720222776E-01 -0.94380988657E-02  0.19739319418E+01  0.19742509976E+01  0.10000000000E-01 0.  1.
</event>
<event>
 7   0  0.6206631E-02  0.9118800E+02  0.7818608E-02  0.1180000E+00
       11   -1    0    0    0    0  0.00000000000E+00  0.00000000000E+00  0.11999999989E+02  0.12000000000E+02  0.51109989000E-03 0. -1.
     -623   -1    0    0    0    0  0.00000000000E+00  0.00000000000E+00  0.42561509872E-11  0.25126700000E+02  0.25126700000E+02 0. -1.
      622    2    1    2    0    0  0.17842010497E-01  0.25001107876E-01  0.91819940393E+01  0.91828057182E+01  0.11816483429E+00 0.  0.
       11    1    1    2    0    0 -0.22323740124E-01 -0.23486325200E-01  0.28170074161E+01  0.28171938166E+01  0.51109989000E-03 0. -1.
     -623    1    1    2    0    0  0.44817296270E-02 -0.15147826754E-02  0.99853375603E-03  0.25126700465E+02  0.25126700000E+02 0. -1.
     -611    1    3    3    0    0  0.50193323869E-01  0.55449437035E-01  0.51112301296E+01  0.51117871090E+01  0.10000000000E-01 0.  1.
      611    1    3    3    0    0 -0.32351313372E-01 -0.30448329160E-01  0.40707639097E+01  0.40710186092E+01  0.10000000000E-01 0. -1.
</event>
<event>
 7   0  0.6206631E-02  0.9118800E+02  0.7818608E-02  0.1180000E+00
       11   -1    0    0    0    0  0.00000000000E+00  0.00000000000E+00  0.11999999989E+02  0.12000000000E+02  0.51109989000E-03 0. -1.
     -623   -1    0    0    0    0  0.00000000000E+00  0.00000000000E+00  0.42561509872E-11  0.25126700000E+02  0.25126700000E+02 0. -1.
      622    2    1    2    0    0  0.66535721811E-02 -0.15754603477E-01  0.11746637796E+02  0.11747050527E+02  0.96974698526E-01 0.  0.
       11    1    1    2    0    0  0.10017180621E-01  0.48301295100E-02  0.25269645273E+00  0.25294155947E+00  0.51109989000E-03 0. -1.
     -623    1    1    2    0    0 -0.16670752803E-01  0.10924473967E-01  0.66574061154E-03  0.25126707914E+02  0.25126700000E+02 0. -1.
     -611    1    3    3    0    0 -0.17075657005E-01 -0.95386702792E-02  0.63282770488E+00  0.63320886630E+00  0.10000000000E-01 0. -1.
      611    1    3    3    0    0  0.23729229186E-01 -0.62159331978E-02  0.11113810091E+02  0.11113841660E+02  0.10000000000E-01 0. -1.
</event>
<event>
 7   0  0.6206631E-02  0.9118800E+02  0.7818608E-02  0.1180000E+00
       11   -1    0    0    0    0  0.00000000000E+00  0.00000000000E+00  0.11999999989E+02  0.12000000000E+02  0.51109989000E-03 0.  1.
     -623   -1    0    0    0    0  0.00000000000E+00  0.00000000000E+00  0.42561509872E-11  0.25126700000E+02  0.25126700000E+02 0.  1.
      622    2    1    2    0    0  0.36101135858E-01  0.27272396751E-01  0.84589021403E+01  0.84593321026E+01  0.72298875472E-01 0.  0.
       11    1    1    2    0    0 -0.59886935934E-01 -0.19957090891E-01  0.35400927618E+01  0.35406555542E+01  0.51109989000E-03 0.  1.
     -623    1    1    2    0    0  0.23785800076E-01 -0.73153058601E-02  0.10050870970E-02  0.25126712343E+02  0.25126700000E+02 0.  1.
     -611    1    3    3    0    0  0.46181790061E-01  0.43098762377E-01  0.64944882224E+01  0.64948031172E+01  0.10000000000E-01 0.  1.
      611    1    3    3    0    0 -0.10080654203E-01 -0.15826365626E-01  0.19644139179E+01  0.19645289853E+01  0.10000000000E-01 0. -1.
</event>
<event>
 7   0  0.6206631E-02  0.9118800E+02  0.7818608E-02  0.1180000E+00
       11   -1    0    0    0    0  0.00000000000E+00  0.00000000000E+00  0.11999999989E+02  0.12000000000E+02  0.51109989000E-03 0. -1.
     -623   -1    0    0    0    0  0.00000000000E+00  0.00000000000E+00  0.42561509872E-11  0.25126700000E+02  0.25126700000E+02 0. -1.
      622    2    1    2    0    0  0.28647304682E-02 -0.86164574304E-02  0.11314886864E+02  0.11315458192E+02  0.11334411305E+00 0.  0.
       11    1    1    2    0    0 -0.59994356441E-02  0.73211447033E-02  0.68447593745E+00  0.68454157110E+00  0.51109989000E-03 0. -1.
     -623    1    1    2    0    0  0.31347051760E-02  0.12953127271E-02  0.63718724822E-03  0.25126700237E+02  0.25126700000E+02 0. -1.
     -611    1    3    3    0    0 -0.20436842236E-01 -0.10203738996E-01  0.57409158530E+00  0.57463286463E+00  0.10000000000E-01 0.  1.
      611    1    3    3    0    0  0.23301572704E-01  0.15872815656E-02  0.10740795279E+02  0.10740825327E+02  0.10000000000E-01 0. -1.
</event>
<event>
 7   0  0.6206631E-02  0.9118800E+02  0.7818608E-02  0.1180000E+00
       11   -1    0    0    0    0  0.00000000000E+00  0.00000000000E+00  0.11999999989E+02  0.12000000000E+02  0.51109989000E-03 0. -1.
     -623   -1    0    0    0    0  0.00000000000E+00  0.00000000000E+00  0.42561509872E-11  0.25126700000E+02  0.25126700000E+02 0.  1.
      622    2    1    2    0    0  0.18517147320E-02 -0.88965981996E-02  0.11723811125E+02  0.11724194795E+02  0.94412422794E-01 0.  0.
       11    1    1    2    0    0 -0.29675655479E-02  0.29279528855E-02  0.27577248599E+00  0.27580446807E+00  0.51109989000E-03 0. -1.
     -623    1    1    2    0    0  0.11158508159E-02  0.59686453141E-02  0.41637779029E-03  0.25126700737E+02  0.25126700000E+02 0.  1.
     -611    1    3    3    0    0  0.15574717139E-01 -0.24031139872E-01  0.10966970984E+02  0.10967012931E+02  0.10000000000E-01 0. -1.
      611    1    3    3    0    0 -0.13723002407E-01  0.15134541673E-01  0.75684014105E+00  0.75718186339E+00  0.10000000000E-01 0. -1.
</event>
<event>
 7   0  0.6206631E-02  0.9118800E+02  0.7818608E-02  0.1180000E+00
       11   -1    0    0    0    0  0.00000000000E+00  0.00000000000E+00  0.11999999989E+02  0.12000000000E+02  0.51109989000E-03 0. -1.
     -623   -1    0    0    0    0  0.00000000000E+00  0.00000000000E+00  0.42561509872E-11  0.25126700000E+02  0.25126700000E+02 0.  1.
      622    2    1    2    0    0 -0.34913292739E-02  0.24360363167E-02  0.11980431785E+02  0.11980781090E+02  0.91387262425E-01 0.  0.
       11    1    1    2    0    0  0.90780221452E-03  0.22462127783E-03  0.19189062111E-01  0.19218633859E-01  0.51109989000E-03 0. -1.
     -623    1    1    2    0    0  0.25835270594E-02 -0.26606575945E-02  0.37914174463E-03  0.25126700277E+02  0.25126700000E+02 0.  1.
     -611    1    3    3    0    0 -0.35331342360E-01  0.19189617949E-01  0.31774740683E+01  0.31777441684E+01  0.10000000000E-01 0.  1.
      611    1    3    3    0    0  0.31840013086E-01 -0.16753581632E-01  0.88029577169E+01  0.88030369211E+01  0.10000000000E-01 0. -1.
</event>
<event>
 7   0  0.6206631E-02  0.9118800E+02  0.7818608E-02  0.1180000E+00
       11   -1    0    0    0    0  0.00000000000E+00  0.00000000000E+00  0.11999999989E+02  0.12000000000E+02  0.51109989000E-03 0.  1.
     -623   -1    0    0    0    0  0.00000000000E+00  0.00000000000E+00  0.42561509872E-11  0.25126700000E+02  0.25126700000E+02 0.  1.
      622    2    1    2    0    0 -0.22677804601E-01 -0.33306270075E-01  0.10831880776E+02  0.10832365690E+02  0.94242780946E-01 0.  0.
       11    1    1    2    0    0  0.14401899061E-01 -0.28014263688E-01  0.11671330039E+01  0.11675581029E+01  0.51109989000E-03 0.  1.
     -623    1    1    2    0    0  0.82759055407E-02  0.61320533763E-01  0.98620902886E-03  0.25126776207E+02  0.25126700000E+02 0.  1.
     -611    1    3    3    0    0  0.26876770833E-01 -0.40354127789E-01  0.42856785335E+01  0.42859644550E+01  0.10000000000E-01 0. -1.
      611    1    3    3    0    0 -0.49554575434E-01  0.70478577140E-02  0.65462022426E+01  0.65464012350E+01  0.10000000000E-01 0.  1.
</event>
<event>
 7   0  0.6206631E-02  0.9118800E+02  0.7818608E-02  0.1180000E+00
       11   -1    0    0    0    0  0.00000000000E+00  0.00000000000E+00  0.11999999989E+02  0.12000000000E+02  0.51109989000E-03 0. -1.
     -623   -1    0    0    0    0  0.00000000000E+00  0.00000000000E+00  0.42561509872E-11  0.25126700000E+02  0.25126700000E+02 0.  1.
      622    2    1    2    0    0  0.11347230833E-01  0.50378692770E-01  0.72937991223E+01  0.72947020330E+01  0.10249556390E+00 0.  0.
       11    1    1    2    0    0 -0.15665155531E-01 -0.53187707972E-01  0.47049706817E+01  0.47052974089E+01  0.51109989000E-03 0. -1.
     -623    1    1    2    0    0  0.43179246985E-02  0.28090152017E-02  0.12301851077E-02  0.25126700558E+02  0.25126700000E+02 0.  1.
     -611    1    3    3    0    0  0.41694473322E-01 -0.88886359054E-02  0.38156384352E+01  0.38158896872E+01  0.10000000000E-01 0.  1.
      611    1    3    3    0    0 -0.30347242490E-01  0.59267328675E-01  0.34781606872E+01  0.34788123458E+01  0.10000000000E-01 0. -1.
</event>
<event>
 7   0  0.6206631E-02  0.9118800E+02  0.7818608E-02  0.1180000E+00
       11   -1    0    0    0    0  0.00000000000E+00  0.00000000000E+00  0.11999999989E+02  0.12000000000E+02  0.51109989000E-03 0.  1.
     -623   -1    0    0    0    0  0.00000000000E+00  0.00000000000E+00  0.42561509872E-11  0.25126700000E+02  0.25126700000E+02 0. -1.
      622    2    1    2    0    0  0.25052805691E-01  0.25426335138E-01  0.11277271446E+02  0.11277809839E+02  0.10425613586E+00 0.  0.
       11    1    1    2    0    0 -0.24056866723E-01 -0.26630151853E-01  0.72129767842E+00  0.72219007189E+00  0.51109989000E-03 0.  1.
     -623    1    1    2    0    0 -0.99593896846E-03  0.12038167146E-02  0.14308642702E-02  0.25126700089E+02  0.25126700000E+02 0. -1.
     -611    1    3    3    0    0  0.29343194218E-01  0.51854464332E-01  0.10137800853E+02  0.10137980866E+02  0.10000000000E-01 0.  1.
      611    1    3    3    0    0 -0.42903885264E-02 -0.26428129194E-01  0.11394705936E+01  0.11398289727E+01  0.10000000000E-01 0. -1.
</event>
<event>
 7   0  0.6206631E-02  0.9118800E+02  0.7818608E-02  0.1180000E+00
       11   -1    0    0    0    0  0.00000000000E+00  0.00000000000E+00  0.11999999989E+02  0.12000000000E+02  0.51109989000E-03 0.  1.
     -623   -1    0    0    0    0  0.00000000000E+00  0.00000000000E+00  0.42561509872E-11  0.25126700000E+02  0.25126700000E+02 0.  1.
      622    2    1    2    0    0 -0.74205790899E-02 -0.58903636475E-01  0.97896137070E+01  0.97905167911E+01  0.11898655531E+00 0.  0.
       11    1    1    2    0    0  0.11143090861E-01  0.58687280002E-01  0.22086751559E+01  0.22094828740E+01  0.51109989000E-03 0.  1.
     -623    1    1    2    0    0 -0.37225117713E-02  0.21635647225E-03  0.17111262916E-02  0.25126700335E+02  0.25126700000E+02 0.  1.
     -611    1    3    3    0    0  0.48947687252E-01 -0.46219728858E-01  0.67080490964E+01  0.67083943548E+01  0.10000000000E-01 0.  1.
      611    1    3    3    0    0 -0.56368266342E-01 -0.12683907616E-01  0.30815646106E+01  0.30821224363E+01  0.10000000000E-01 0. -1.
</event>
<event>
 7   0  0.6206631E-02  0.9118800E+02  0.7818608E-02  0.1180000E+00
       11   -1    0    0    0    0  0.00000000000E+00  0.00000000000E+00  0.11999999989E+02  0.12000000000E+02  0.51109989000E-03 0. -1.
     -623   -1    0    0    0    0  0.00000000000E+00  0.00000000000E+00  0.42561509872E-11  0.25126700000E+02  0.25126700000E+02 0.  1.
      622    2    1    2    0    0  0.41403472488E-02 -0.16341919579E-01  0.11851954389E+02  0.11852561399E+02  0.11876307954E+00 0.  0.
       11    1    1    2    0    0  0.24451136763E-02  0.10019781720E-01  0.14707484760E+00  0.14743692423E+00  0.51109989000E-03 0. -1.
     -623    1    1    2    0    0 -0.65854609251E-02  0.63221378587E-02  0.97075250330E-03  0.25126701677E+02  0.25126700000E+02 0.  1.
     -611    1    3    3    0    0  0.19831597324E-01  0.47530196430E-01  0.59810457086E+01  0.59812757987E+01  0.10000000000E-01 0. -1.
      611    1    3    3    0    0 -0.15691250075E-01 -0.63872116009E-01  0.58709086805E+01  0.58712856000E+01  0.10000000000E-01 0.  1.
</event>
<event>
 7   0  0.6206631E-02  0.9118800E+02  0.7818608E-02  0.1180000E+00
       11   -1    0    0    0    0  0.00000000000E+00  0.00000000000E+00  0.11999999989E+02  0.12000000000E+02  0.51109989000E-03 0. -1.
     -623   -1    0    0    0    0  0.00000000000E+00  0.00000000000E+00  0.42561509872E-11  0.25126700000E+02  0.25126700000E+02 0. -1.
      622    2    1    2    0    0 -0.73092197635E-02 -0.15946955175E-01  0.11844080418E+02  0.11844537164E+02  0.10252779594E+00 0.  0.
       11    1    1    2    0    0  0.48222128283E-02  0.21540091927E-01  0.15388614485E+00  0.15546200853E+00  0.51109989000E-03 0. -1.
     -623    1    1    2    0    0  0.24870069352E-02 -0.55931367511E-02  0.20334265725E-02  0.25126700828E+02  0.25126700000E+02 0. -1.
     -611    1    3    3    0    0  0.77114296528E-02  0.35124116494E-01  0.22982461036E+01  0.22985491778E+01  0.10000000000E-01 0.  1.
      611    1    3    3    0    0 -0.15020649416E-01 -0.51071071669E-01  0.95458343141E+01  0.95459879858E+01  0.10000000000E-01 0. -1.
</event>
<event>
 7   0  0.6206631E-02  0.9118800E+02  0.7818608E-02  0.1180000E+00
       11   -1    0    0    0    0  0.00000000000E+00  0.00000000000E+00  0.11999999989E+02  0.12000000000E+02  0.51109989000E-03 0. -1.
     -623   -1    0    0    0    0  0.00000000000E+00  0.00000000000E+00  0.42561509872E-11  0.25126700000E+02  0.25126700000E+02 0.  1.
      622    2    1    2    0    0  0.59977454822E-02  0.52822275697E-02  0.10630995912E+02  0.10631621663E+02  0.11507048718E+00 0.  0.
       11    1    1    2    0    0 -0.27764401393E-01 -0.17352311141E-01  0.13679741423E+01  0.13683659890E+01  0.51109989000E-03 0. -1.
     -623    1    1    2    0    0  0.21766655910E-01  0.12070083571E-01  0.10299343791E-02  0.25126712348E+02  0.25126700000E+02 0.  1.
     -611    1    3    3    0    0  0.45855633953E-01 -0.34175025247E-01  0.49693937145E+01  0.49697328460E+01  0.10000000000E-01 0.  1.
      611    1    3    3    0    0 -0.39857888471E-01  0.39457252817E-01  0.56616021979E+01  0.56618888168E+01  0.10000000000E-01 0. -1.
</event>
<event>
 7   0  0.6206631E-02  0.9118800E+02  0.7818608E-02  0.1180000E+00
       11   -1    0    0    0    0  0.00000000000E+00  0.00000000000E+00  0.11999999989E+02  0.12000000000E+02  0.51109989000E-03 0. -1.
     -623   -1    0    0    0    0  0.00000000000E+00  0.00000000000E+00  0.42561509872E-11  0.25126700000E+02  0.25126700000E+02 0.  1.
      622    2    1    2    0    0  0.12593873155E+00 -0.51623230374E-02  0.11744995815E+02  0.11746221184E+02  0.11357022768E+00 0.  0.
       11    1    1    2    0    0 -0.60303490798E-01  0.69526473471E-02  0.24632149569E+00  0.25369152680E+00  0.51109989000E-03 0. -1.
     -623    1    1    2    0    0 -0.65635240750E-01 -0.17903243097E-02  0.86826783276E-02  0.25126787289E+02  0.25126700000E+02 0.  1.
     -611    1    3    3    0    0  0.45841095494E-01 -0.47862341611E-01  0.71754187804E+01  0.71757318013E+01  0.10000000000E-01 0.  1.
      611    1    3    3    0    0  0.80097636054E-01  0.42700018574E-01  0.45695770347E+01  0.45704893829E+01  0.10000000000E-01 0. -1.
</event>
<event>
 7   0  0.6206631E-02  0.9118800E+02  0.7818608E-02  0.1180000E+00
       11   -1    0    0    0    0  0.00000000000E+00  0.00000000000E+00  0.11999999989E+02  0.12000000000E+02  0.51109989000E-03 0. -1.
     -623   -1    0    0    0    0  0.00000000000E+00  0.00000000000E+00  0.42561509872E-11  0.25126700000E+02  0.25126700000E+02 0. -1.
      622    2    1    2    0    0  0.10780553924E-01 -0.64528872960E-02  0.11834069635E+02  0.11834543503E+02  0.10515681493E+00 0.  0.
       11    1    1    2    0    0 -0.12084048194E-01 -0.27136082370E-02  0.16498979611E+00  0.16545477308E+00  0.51109989000E-03 0. -1.
     -623    1    1    2    0    0  0.13034942703E-02  0.91664955330E-02  0.94055825767E-03  0.25126701723E+02  0.25126700000E+02 0. -1.
     -611    1    3    3    0    0 -0.28715644832E-01 -0.24989981232E-01  0.20870225817E+01  0.20873936725E+01  0.10000000000E-01 0.  1.
      611    1    3    3    0    0  0.39496198756E-01  0.18537093936E-01  0.97470470530E+01  0.97471498310E+01  0.10000000000E-01 0. -1.
</event>
<event>
 7   0  0.6206631E-02  0.9118800E+02  0.7818608E-02  0.1180000E+00
       11   -1    0    0    0    0  0.00000000000E+00  0.00000000000E+00  0.11999999989E+02  0.12000000000E+02  0.51109989000E-03 0.  1.
     -623   -1    0    0    0    0  0.00000000000E+00  0.00000000000E+00  0.42561509872E-11  0.25126700000E+02  0.25126700000E+02 0.  1.
      622    2    1    2    0    0  0.91499031849E-02 -0.53993381129E-02  0.11678967864E+02  0.11679487076E+02  0.10961339605E+00 0.  0.
       11    1    1    2    0    0 -0.48826610296E-02 -0.56042468180E-03  0.32047375826E+00  0.32051184909E+00  0.51109989000E-03 0.  1.
     -623    1    1    2    0    0 -0.42672421553E-02  0.59597627947E-02  0.55836645088E-03  0.25126701075E+02  0.25126700000E+02 0.  1.
     -611    1    3    3    0    0 -0.19916054052E-01  0.67710916467E-03  0.52280156186E+00  0.52327677262E+00  0.10000000000E-01 0. -1.
      611    1    3    3    0    0  0.29065957237E-01 -0.60764472775E-02  0.11156166303E+02  0.11156210303E+02  0.10000000000E-01 0.  1.
</event>
<event>
 7   0  0.6206631E-02  0.9118800E+02  0.7818608E-02  0.1180000E+00
       11   -1    0    0    0    0  0.00000000000E+00  0.00000000000E+00  0.11999999989E+02  0.12000000000E+02  0.51109989000E-03 0.  1.
     -623   -1    0    0    0    0  0.00000000000E+00  0.00000000000E+00  0.42561509872E-11  0.25126700000E+02  0.25126700000E+02 0.  1.
      622    2    1    2    0    0 -0.12451155449E-02 -0.61619534287E-04  0.11998719030E+02  0.11998974180E+02  0.78239732498E-01 0.  0.
       11    1    1    2    0    0 -0.69322275487E-03 -0.12124706381E-03  0.54373484347E-03  0.10257335833E-02  0.51109989000E-03 0.  1.
     -623    1    1    2    0    0  0.19383382998E-02  0.18286659809E-03  0.73722403911E-03  0.25126700086E+02  0.25126700000E+02 0.  1.
     -611    1    3    3    0    0 -0.16353507005E-01  0.33084554460E-01  0.74584574009E+01  0.74585554115E+01  0.10000000000E-01 0.  1.
      611    1    3    3    0    0  0.15108391460E-01 -0.33146173994E-01  0.45402616293E+01  0.45404187687E+01  0.10000000000E-01 0. -1.
</event>
<event>
 7   0  0.6206631E-02  0.9118800E+02  0.7818608E-02  0.1180000E+00
       11   -1    0    0    0    0  0.00000000000E+00  0.00000000000E+00  0.11999999989E+02  0.12000000000E+02  0.51109989000E-03 0. -1.
     -623   -1    0    0    0    0  0.00000000000E+00  0.00000000000E+00  0.42561509872E-11  0.25126700000E+02  0.25126700000E+02 0.  1.
      622    2    1    2    0    0 -0.37192306106E-01  0.10632928021E+00  0.96105128454E+01  0.96116296191E+01  0.93688846549E-01 0.  0.
       11    1    1    2    0    0  0.96494386109E-01 -0.51732188568E-01  0.23857297606E+01  0.23882408040E+01  0.51109989000E-03 0. -1.
     -623    1    1    2    0    0 -0.59302080003E-01 -0.54597091645E-01  0.37573831075E-02  0.25126829577E+02  0.25126700000E+02 0.  1.
     -611    1    3    3    0    0 -0.33628400353E-01  0.43001953051E-01  0.73378156562E+01  0.73380255275E+01  0.10000000000E-01 0. -1.
      611    1    3    3    0    0 -0.35639057535E-02  0.63327327162E-01  0.22726971892E+01  0.22736040916E+01  0.10000000000E-01 0.  1.
</event>
<event>
 7   0  0.6206631E-02  0.9118800E+02  0.7818608E-02  0.1180000E+00
       11   -1    0    0    0    0  0.00000000000E+00  0.00000000000E+00  0.11999999989E+02  0.12000000000E+02  0.51109989000E-03 0.  1.
     -623   -1    0    0    0    0  0.00000000000E+00  0.00000000000E+00  0.42561509872E-11  0.25126700000E+02  0.25126700000E+02 0.  1.
      622    2    1    2    0    0  0.56202501263E-02  0.30702145855E-01  0.11813384325E+02  0.11813757842E+02  0.88605402863E-01 0.  0.
       11    1    1    2    0    0  0.60925917420E-02 -0.26436804198E-01  0.18425162896E+00  0.18623895481E+00  0.51109989000E-03 0.  1.
     -623    1    1    2    0    0 -0.11712841868E-01 -0.42653416577E-02  0.23640346380E-02  0.25126703203E+02  0.25126700000E+02 0.  1.
     -611    1    3    3    0    0 -0.12603566661E-01 -0.14374672610E-01  0.82455039898E+01  0.82455322161E+01  0.10000000000E-01 0.  1.
      611    1    3    3    0    0  0.18223816787E-01  0.45076818465E-01  0.35678803357E+01  0.35682256259E+01  0.10000000000E-01 0. -1.
</event>
<event>
 7   0  0.6206631E-02  0.9118800E+02  0.7818608E-02  0.1180000E+00
       11   -1    0    0    0    0  0.00000000000E+00  0.00000000000E+00  0.11999999989E+02  0.12000000000E+02  0.51109989000E-03 0.  1.
     -623   -1    0    0    0    0  0.00000000000E+00  0.00000000000E+00  0.42561509872E-11  0.25126700000E+02  0.25126700000E+02 0. -1.
      622    2    1    2    0    0 -0.27887283329E-01 -0.26461508872E-02  0.10637463014E+02  0.10638198636E+02  0.12192682418E+00 0.  0.
       11    1    1    2    0    0  0.27954748104E-01  0.73851570439E-03  0.13615140199E+01  0.13618012708E+01  0.51109989000E-03 0.  1.
     -623    1    1    2    0    0 -0.67464775232E-04  0.19076351829E-02  0.10229556687E-02  0.25126700093E+02  0.25126700000E+02 0. -1.
     -611    1    3    3    0    0 -0.66258725947E-01  0.16510377778E-02  0.90012200304E+01  0.90014696011E+01  0.10000000000E-01 0.  1.
      611    1    3    3    0    0  0.38371442618E-01 -0.42971886650E-02  0.16362429831E+01  0.16367290348E+01  0.10000000000E-01 0. -1.
</event>
<event>
 7   0  0.6206631E-02  0.9118800E+02  0.7818608E-02  0.1180000E+00
       11   -1    0    0    0    0  0.00000000000E+00  0.00000000000E+00  0.11999999989E+02  0.12000000000E+02  0.51109989000E-03 0. -1.
     -623   -1    0    0    0    0  0.00000000000E+00  0.00000000000E+00  0.42561509872E-11  0.25126700000E+02  0.25126700000E+02 0.  1.
      622    2    1    2    0    0  0.47951029564E-02 -0.79416384675E-02  0.11941494564E+02  0.11942164548E+02  0.12615709028E+00 0.  0.
       11    1    1    2    0    0 -0.27093999776E-01 -0.87695934050E-02  0.50316461625E-01  0.57818665896E-01  0.51109989000E-03 0. -1.
     -623    1    1    2    0    0  0.22298896819E-01  0.16711231873E-01  0.81889638087E-02  0.25126716786E+02  0.25126700000E+02 0.  1.
     -611    1    3    3    0    0  0.17798608610E-01 -0.45618825892E-01  0.10406540467E+02  0.10406660480E+02  0.10000000000E-01 0. -1.
      611    1    3    3    0    0 -0.13003505654E-01  0.37677187425E-01  0.15349540970E+01  0.15355040676E+01  0.10000000000E-01 0.  1.
</event>
<event>
 7   0  0.6206631E-02  0.9118800E+02  0.7818608E-02  0.1180000E+00
       11   -1    0    0    0    0  0.00000000000E+00  0.00000000000E+00  0.11999999989E+02  0.12000000000E+02  0.51109989000E-03 0.  1.
     -623   -1    0    0    0    0  0.00000000000E+00  0.00000000000E+00  0.42561509872E-11  0.25126700000E+02  0.25126700000E+02 0.  1.
      622    2    1    2    0    0 -0.80401161260E-02 -0.12518121695E-01  0.11240175378E+02  0.11240660827E+02  0.10340194811E+00 0.  0.
       11    1    1    2    0    0  0.54206458983E-02  0.16422654910E-01  0.75914158679E+00  0.75933872350E+00  0.51109989000E-03 0.  1.
     -623    1    1    2    0    0  0.26194702277E-02 -0.39045332148E-02  0.68302448467E-03  0.25126700449E+02  0.25126700000E+02 0.  1.
     -611    1    3    3    0    0  0.10956208978E-01  0.28076058321E-01  0.87769520507E+01  0.87770094910E+01  0.10000000000E-01 0.  1.
      611    1    3    3    0    0 -0.18996325104E-01 -0.40594180016E-01  0.24632233271E+01  0.24636513363E+01  0.10000000000E-01 0. -1.
</event>
<event>
 7   0  0.6206631E-02  0.9118800E+02  0.7818608E-02  0.1180000E+00
       11   -1    0    0    0    0  0.00000000000E+00  0.00000000000E+00  0.11999999989E+02  0.12000000000E+02  0.51109989000E-03 0.  1.
     -623   -1    0    0    0    0  0.00000000000E+00  0.00000000000E+00  0.42561509872E-11  0.25126700000E+02  0.25126700000E+02 0.  1.
      622    2    1    2    0    0 -0.49454375943E-01  0.20695281370E+00  0.83844796705E+01  0.83876830537E+01  0.91937271299E-01 0.  0.
       11    1    1    2    0    0 -0.53993740242E-02 -0.16790431579E+00  0.36083172271E+01  0.36122256969E+01  0.51109989000E-03 0.  1.
     -623    1    1    2    0    0  0.54853749967E-01 -0.39048497909E-01  0.72030915378E-02  0.25126791249E+02  0.25126700000E+02 0.  1.
     -611    1    3    3    0    0 -0.50209571269E-02  0.77842522752E-01  0.47049896419E+01  0.47056468417E+01  0.10000000000E-01 0. -1.
      611    1    3    3    0    0 -0.44433418816E-01  0.12911029094E+00  0.36794900286E+01  0.36820362120E+01  0.10000000000E-01 0.  1.
</event>
<event>
 7   0  0.6206631E-02  0.9118800E+02  0.7818608E-02  0.1180000E+00
       11   -1    0    0    0    0  0.00000000000E+00  0.00000000000E+00  0.11999999989E+02  0.12000000000E+02  0.51109989000E-03 0.  1.
     -623   -1    0    0    0    0  0.00000000000E+00  0.00000000000E+00  0.42561509872E-11  0.25126700000E+02  0.25126700000E+02 0. -1.
      622    2    1    2    0    0 -0.22142090494E-01 -0.25577136297E-01  0.11816752501E+02  0.11817178182E+02  0.94424887098E-01 0.  0.
       11    1    1    2    0    0  0.24660572952E-01  0.35015420842E-01  0.17773130457E+00  0.18281931354E+00  0.51109989000E-03 0.  1.
     -623    1    1    2    0    0 -0.25184824582E-02 -0.94382845452E-02  0.55161836998E-02  0.25126702504E+02  0.25126700000E+02 0. -1.
     -611    1    3    3    0    0 -0.32963171515E-01 -0.54197657613E-01  0.61768112781E+01  0.61771450948E+01  0.10000000000E-01 0.  1.
      611    1    3    3    0    0  0.10821081021E-01  0.28620521316E-01  0.56399412227E+01  0.56400330873E+01  0.10000000000E-01 0. -1.
</event>
<event>
 7   0  0.6206631E-02  0.9118800E+02  0.7818608E-02  0.1180000E+00
       11   -1    0    0    0    0  0.00000000000E+00  0.00000000000E+00  0.11999999989E+02  0.12000000000E+02  0.51109989000E-03 0. -1.
     -623   -1    0    0    0    0  0.00000000000E+00  0.00000000000E+00  0.42561509872E-11  0.25126700000E+02  0.25126700000E+02 0. -1.
      622    2    1    2    0    0  0.22647878345E-02  0.12574431950E-01  0.11504039304E+02  0.11504541096E+02  0.10668778439E+00 0.  0.
       11    1    1    2    0    0 -0.14604354699E-02 -0.11755744472E-01  0.49531696918E+00  0.49545886971E+00  0.51109989000E-03 0. -1.
     -623    1    1    2    0    0 -0.80435236453E-03 -0.81868747751E-03  0.64371643393E-03  0.25126700034E+02  0.25126700000E+02 0. -1.
     -611    1    3    3    0    0  0.21427226905E-01 -0.32031266822E-02  0.10750949669E+02  0.10750976150E+02  0.10000000000E-01 0. -1.
      611    1    3    3    0    0 -0.19162439071E-01  0.15777558632E-01  0.75308963417E+00  0.75356494579E+00  0.10000000000E-01 0. -1.
</event>
<event>
 7   0  0.6206631E-02  0.9118800E+02  0.7818608E-02  0.1180000E+00
       11   -1    0    0    0    0  0.00000000000E+00  0.00000000000E+00  0.11999999989E+02  0.12000000000E+02  0.51109989000E-03 0. -1.
     -623   -1    0    0    0    0  0.00000000000E+00  0.00000000000E+00  0.42561509872E-11  0.25126700000E+02  0.25126700000E+02 0. -1.
      622    2    1    2    0    0  0.89575924851E-01 -0.14423197190E+00  0.97683952957E+01  0.97702148250E+01  0.82002220855E-01 0.  0.
       11    1    1    2    0    0 -0.11391525343E+00  0.11480371369E+00  0.22238818254E+01  0.22297549668E+01  0.51109989000E-03 0. -1.
     -623    1    1    2    0    0  0.24339328575E-01  0.29428258215E-01  0.77228680508E-02  0.25126730208E+02  0.25126700000E+02 0. -1.
     -611    1    3    3    0    0  0.10014465692E+00 -0.14161915220E+00  0.90473874971E+01  0.90490555010E+01  0.10000000000E-01 0. -1.
      611    1    3    3    0    0 -0.10568732068E-01 -0.26128196963E-02  0.72100779861E+00  0.72115932399E+00  0.10000000000E-01 0.  1.
</event>
<event>
 7   0  0.6206631E-02  0.9118800E+02  0.7818608E-02  0.1180000E+00
       11   -1    0    0    0    0  0.00000000000E+00  0.00000000000E+00  0.11999999989E+02  0.12000000000E+02  0.51109989000E-03 0. -1.
     -623   -1    0    0    0    0  0.00000000000E+00  0.00000000000E+00  0.42561509872E-11  0.25126700000E+02  0.25126700000E+02 0. -1.
      622    2    1    2    0    0  0.19349015193E-01  0.65547914961E-02  0.11497437235E+02  0.11497867521E+02  0.97350968213E-01 0.  0.
       11    1    1    2    0    0 -0.23746111059E-01 -0.11036174478E-01  0.50144818034E+00  0.50213166971E+00  0.51109989000E-03 0. -1.
     -623    1    1    2    0    0  0.43970958667E-02  0.44813829823E-02  0.11145737111E-02  0.25126700809E+02  0.25126700000E+02 0. -1.
     -611    1    3    3    0    0  0.34284507304E-01  0.27436358588E-01  0.10355605138E+02  0.10355703065E+02  0.10000000000E-01 0. -1.
      611    1    3    3    0    0 -0.14935492111E-01 -0.20881567092E-01  0.11418320968E+01  0.11421644566E+01  0.10000000000E-01 0. -1.
</event>
<event>
 7   0  0.6206631E-02  0.9118800E+02  0.7818608E-02  0.1180000E+00
       11   -1    0    0    0    0  0.00000000000E+00  0.00000000000E+00  0.11999999989E+02  0.12000000000E+02  0.51109989000E-03 0. -1.
     -623   -1    0    0    0    0  0.00000000000E+00  0.00000000000E+00  0.42561509872E-11  0.25126700000E+02  0.25126700000E+02 0. -1.
      622    2    1    2    0    0 -0.23571413084E-02 -0.19339322292E-02  0.11998509158E+02  0.11999049081E+02  0.11378727025E+00 0.  0.
       11    1    1    2    0    0 -0.64193899050E-03 -0.44145270246E-03 -0.18814123419E-03  0.95057163394E-03  0.51109989000E-03 0. -1.
     -623    1    1    2    0    0  0.29990802989E-02  0.23753849317E-02  0.16789725722E-02  0.25126700347E+02  0.25126700000E+02 0. -1.
     -611    1    3    3    0    0 -0.50977568163E-01 -0.26269999217E-01  0.66107832886E+01  0.66110395941E+01  0.10000000000E-01 0. -1.
      611    1    3    3    0    0  0.48620426855E-01  0.24336066988E-01  0.53877258692E+01  0.53880094869E+01  0.10000000000E-01 0.  1.
</event>
<event>
 7   0  0.6206631E-02  0.9118800E+02  0.7818608E-02  0.1180000E+00
       11   -1    0    0    0    0  0.00000000000E+00  0.00000000000E+00  0.11999999989E+02  0.12000000000E+02  0.51109989000E-03 0. -1.
     -623   -1    0    0    0    0  0.00000000000E+00  0.00000000000E+00  0.42561509872E-11  0.25126700000E+02  0.25126700000E+02 0. -1.
      622    2    1    2    0    0  0.60967007270E-02 -0.75362399853E-04  0.11987225431E+02  0.11987400293E+02  0.64459882779E-01 0.  0.
       11    1    1    2    0    0  0.13727267379E-02  0.37872141123E-03  0.12507419296E-01  0.12598593937E-01  0.51109989000E-03 0. -1.
     -623    1    1    2    0    0 -0.74694274649E-02 -0.30335901138E-03  0.26713927058E-03  0.25126701113E+02  0.25126700000E+02 0. -1.
     -611    1    3    3    0    0 -0.26765266898E-01 -0.60561016964E-02  0.63343853872E+01  0.63344527221E+01  0.10000000000E-01 0.  1.
      611    1    3    3    0    0  0.32861967625E-01  0.59807392965E-02  0.56528400434E+01  0.56529475704E+01  0.10000000000E-01 0. -1.
</event>
<event>
 7   0  0.6206631E-02  0.9118800E+02  0.7818608E-02  0.1180000E+00
       11   -1    0    0    0    0  0.00000000000E+00  0.00000000000E+00  0.11999999989E+02  0.12000000000E+02  0.51109989000E-03 0.  1.
     -623   -1    0    0    0    0  0.00000000000E+00  0.00000000000E+00  0.42561509872E-11  0.25126700000E+02  0.25126700000E+02 0.  1.
      622    2    1    2    0    0 -0.47007857578E-03  0.13283758395E-03  0.11995751692E+02  0.11996136754E+02  0.96115075753E-01 0.  0.
       11    1    1    2    0    0 -0.42283117637E-03 -0.30702479232E-03  0.37934470863E-02  0.38632258989E-02  0.51109989000E-03 0.  1.
     -623    1    1    2    0    0  0.89290975215E-03  0.17418720836E-03  0.45484976240E-03  0.25126700021E+02  0.25126700000E+02 0.  1.
     -611    1    3    3    0    0  0.20423679285E-01  0.80537575482E-02  0.81204697096E+00  0.81240523923E+00  0.10000000000E-01 0.  1.
      611    1    3    3    0    0 -0.20893757861E-01 -0.79209199642E-02  0.11183704721E+02  0.11183731514E+02  0.10000000000E-01 0.  1.
</event>
<event>
 7   0  0.6206631E-02  0.9118800E+02  0.7818608E-02  0.1180000E+00
       11   -1    0    0    0    0  0.00000000000E+00  0.00000000000E+00  0.11999999989E+02  0.12000000000E+02  0.51109989000E-03 0.  1.
     -623   -1    0    0    0    0  0.00000000000E+00  0.00000000000E+00  0.42561509872E-11  0.25126700000E+02  0.25126700000E+02 0.  1.
      622    2    1    2    0    0  0.17349033873E-02 -0.16792950452E-01  0.92594970328E+01  0.92600858260E+01  0.10304946240E+00 0.  0.
       11    1    1    2    0    0 -0.71124736220E-02  0.24884871158E-01  0.27397899968E+01  0.27399122855E+01  0.51109989000E-03 0.  1.
     -623    1    1    2    0    0  0.53775702347E-02 -0.80919207065E-02  0.71295951695E-03  0.25126701889E+02  0.25126700000E+02 0.  1.
     -611    1    3    3    0    0 -0.12683566773E-01  0.18591705357E-01  0.78419341381E+01  0.78419728099E+01  0.10000000000E-01 0. -1.
      611    1    3    3    0    0  0.14418470160E-01 -0.35384655809E-01  0.14175628947E+01  0.14181130161E+01  0.10000000000E-01 0.  1.
</event>
<event>
 7   0  0.6206631E-02  0.9118800E+02  0.7818608E-02  0.1180000E+00
       11   -1    0    0    0    0  0.00000000000E+00  0.00000000000E+00  0.11999999989E+02  0.12000000000E+02  0.51109989000E-03 0. -1.
     -623   -1    0    0    0    0  0.00000000000E+00  0.00000000000E+00  0.42561509872E-11  0.25126700000E+02  0.25126700000E+02 0. -1.
      622    2    1    2    0    0 -0.63259526963E-01  0.27877863119E-01  0.75932018588E+01  0.75939403555E+01  0.80229117912E-01 0.  0.
       11    1    1    2    0    0  0.83766587561E-01  0.46804215097E-01  0.44048951716E+01  0.44059402186E+01  0.51109989000E-03 0. -1.
     -623    1    1    2    0    0 -0.20507060599E-01 -0.74682078215E-01  0.19029587387E-02  0.25126819426E+02  0.25126700000E+02 0. -1.
     -611    1    3    3    0    0 -0.69598640412E-01  0.34341771389E-01  0.73086840999E+01  0.73091029956E+01  0.10000000000E-01 0.  1.
      611    1    3    3    0    0  0.63391134494E-02 -0.64639082707E-02  0.28451775884E+00  0.28483735985E+00  0.10000000000E-01 0.  1.
</event>
<event>
 7   0  0.6206631E-02  0.9118800E+02  0.7818608E-02  0.1180000E+00
       11   -1    0    0    0    0  0.00000000000E+00  0.00000000000E+00  0.11999999989E+02  0.12000000000E+02  0.51109989000E-03 0. -1.
     -623   -1    0    0    0    0  0.00000000000E+00  0.00000000000E+00  0.42561509872E-11  0.25126700000E+02  0.25126700000E+02 0. -1.
      622    2    1    2    0    0  0.11257385325E-02  0.60282034285E-02  0.11659454270E+02  0.11659864857E+02  0.97657471878E-01 0.  0.
       11    1    1    2    0    0  0.10189076624E-01  0.82009042024E-02  0.33987659909E+00  0.34012855796E+00  0.51109989000E-03 0. -1.
     -623    1    1    2    0    0 -0.11314815157E-01 -0.14229107631E-01  0.66911952771E-03  0.25126706585E+02  0.25126700000E+02 0. -1.
     -611    1    3    3    0    0 -0.22669742858E-01  0.34557484038E-01  0.92978196085E+01  0.92979168425E+01  0.10000000000E-01 0. -1.
      611    1    3    3    0    0  0.23795481390E-01 -0.28529280610E-01  0.23616346619E+01  0.23619480141E+01  0.10000000000E-01 0.  1.
</event>
<event>
 7   0  0.6206631E-02  0.9118800E+02  0.7818608E-02  0.1180000E+00
       11   -1    0    0    0    0  0.00000000000E+00  0.00000000000E+00  0.11999999989E+02  0.12000000000E+02  0.51109989000E-03 0. -1.
     -623   -1    0    0    0    0  0.00000000000E+00  0.00000000000E+00  0.42561509872E-11  0.25126700000E+02  0.25126700000E+02 0.  1.
      622    2    1    2    0    0 -0.43650005077E-01  0.11004871296E-01  0.87894135109E+01  0.87898799350E+01  0.78568287553E-01 0.  0.
       11    1    1    2    0    0  0.52778210822E-01  0.18700425896E-01  0.32096124105E+01  0.32101008289E+01  0.51109989000E-03 0. -1.
     -623    1    1    2    0    0 -0.91282057448E-02 -0.29705297192E-01  0.97406776326E-03  0.25126719236E+02  0.25126700000E+02 0.  1.
     -611    1    3    3    0    0  0.19591034997E-01 -0.70987661321E-02  0.28507881940E+01  0.28508818861E+01  0.10000000000E-01 0.  1.
      611    1    3    3    0    0 -0.63241040074E-01  0.18103637428E-01  0.59386253168E+01  0.59389980489E+01  0.10000000000E-01 0. -1.
</event>
<event>
 7   0  0.6206631E-02  0.9118800E+02  0.7818608E-02  0.1180000E+00
       11   -1    0    0    0    0  0.00000000000E+00  0.00000000000E+00  0.11999999989E+02  0.12000000000E+02  0.51109989000E-03 0.  1.
     -623   -1    0    0    0    0  0.00000000000E+00  0.00000000000E+00  0.42561509872E-11  0.25126700000E+02  0.25126700000E+02 0.  1.
      622    2    1    2    0    0  0.86727919217E-02 -0.18275261608E-01  0.11759526924E+02  0.11759944959E+02  0.97070920294E-01 0.  0.
       11    1    1    2    0    0 -0.12041925199E-01  0.68754731357E-02  0.23965083958E+00  0.24005221563E+00  0.51109989000E-03 0.  1.
     -623    1    1    2    0    0  0.33691332772E-02  0.11399788472E-01  0.82222564974E-03  0.25126702825E+02  0.25126700000E+02 0.  1.
     -611    1    3    3    0    0  0.23912411436E-01  0.26101831870E-01  0.83444670946E+01  0.83445481724E+01  0.10000000000E-01 0.  1.
      611    1    3    3    0    0 -0.15239619514E-01 -0.44377093478E-01  0.34150598293E+01  0.34153967867E+01  0.10000000000E-01 0.  1.
</event>
<event>
 7   0  0.6206631E-02  0.9118800E+02  0.7818608E-02  0.1180000E+00
       11   -1    0    0    0    0  0.00000000000E+00  0.00000000000E+00  0.11999999989E+02  0.12000000000E+02  0.51109989000E-03 0.  1.
     -623   -1    0    0    0    0  0.00000000000E+00  0.00000000000E+00  0.42561509872E-11  0.25126700000E+02  0.25126700000E+02 0.  1.
      622    2    1    2    0    0 -0.88833300159E-01  0.42182845130E-01  0.94581576488E+01  0.94590907129E+01  0.89332290517E-01 0.  0.
       11    1    1    2    0    0  0.92186326006E-01 -0.52167004349E-01  0.25386980545E+01  0.25409068830E+01  0.51109989000E-03 0.  1.
     -623    1    1    2    0    0 -0.33530258471E-02  0.99841592194E-02  0.31442858373E-02  0.25126702404E+02  0.25126700000E+02 0.  1.
     -611    1    3    3    0    0  0.19550181678E-03  0.24261575220E-01  0.75942026113E+00  0.75987353900E+00  0.10000000000E-01 0. -1.
      611    1    3    3    0    0 -0.89028801975E-01  0.17921269910E-01  0.86987373877E+01  0.86992171739E+01  0.10000000000E-01 0.  1.
</event>
<event>
 7   0  0.6206631E-02  0.9118800E+02  0.7818608E-02  0.1180000E+00
       11   -1    0    0    0    0  0.00000000000E+00  0.00000000000E+00  0.11999999989E+02  0.12000000000E+02  0.51109989000E-03 0.  1.
     -623   -1    0    0    0    0  0.00000000000E+00  0.00000000000E+00  0.42561509872E-11  0.25126700000E+02  0.25126700000E+02 0. -1.
      622    2    1    2    0    0  0.13230458109E-02 -0.11400533237E-02  0.11991962511E+02  0.11992473798E+02  0.11072438916E+00 0.  0.
       11    1    1    2    0    0  0.22998925877E-03  0.28882809412E-03  0.74996766460E-02  0.75261337793E-02  0.51109989000E-03 0.  1.
     -623    1    1    2    0    0 -0.15530350697E-02  0.85122522957E-03  0.53780184106E-03  0.25126700068E+02  0.25126700000E+02 0. -1.
     -611    1    3    3    0    0 -0.24344484360E-01  0.44582262109E-01  0.77937922260E+01  0.77939641707E+01  0.10000000000E-01 0.  1.
      611    1    3    3    0    0  0.25667530171E-01 -0.45722315433E-01  0.41981702847E+01  0.41985096274E+01  0.10000000000E-01 0. -1.
</event>
<event>
 7   0  0.6206631E-02  0.9118800E+02  0.7818608E-02  0.1180000E+00
       11   -1    0    0    0    0  0.00000000000E+00  0.00000000000E+00  0.11999999989E+02  0.12000000000E+02  0.51109989000E-03 0.  1.
     -623   -1    0    0    0    0  0.00000000000E+00  0.00000000000E+00  0.42561509872E-11  0.25126700000E+02  0.25126700000E+02 0. -1.
      622    2    1    2    0    0  0.21695575173E-02  0.37064963517E-03  0.11963484489E+02  0.11963809252E+02  0.88124148056E-01 0.  0.
       11    1    1    2    0    0 -0.22057271425E-02  0.93219333022E-03  0.36107784303E-01  0.36190710507E-01  0.51109989000E-03 0.  1.
     -623    1    1    2    0    0  0.36169625259E-04 -0.13028429654E-02  0.40771585876E-03  0.25126700037E+02  0.25126700000E+02 0. -1.
     -611    1    3    3    0    0  0.28474352899E-01 -0.32633663355E-01  0.65709270541E+01  0.65710773923E+01  0.10000000000E-01 0. -1.
      611    1    3    3    0    0 -0.26304795382E-01  0.33004312990E-01  0.53925574348E+01  0.53927318601E+01  0.10000000000E-01 0.  1.
</event>
<event>
 7   0  0.6206631E-02  0.9118800E+02  0.7818608E-02  0.1180000E+00
       11   -1    0    0    0    0  0.00000000000E+00  0.00000000000E+00  0.11999999989E+02  0.12000000000E+02  0.51109989000E-03 0. -1.
     -623   -1    0    0    0    0  0.00000000000E+00  0.00000000000E+00  0.42561509872E-11  0.25126700000E+02  0.25126700000E+02 0.  1.
      622    2    1    2    0    0  0.28530531494E-03  0.54884367248E-03  0.11993353215E+02  0.11993577594E+02  0.73360731229E-01 0.  0.
       11    1    1    2    0    0 -0.17761608076E-04 -0.25035668198E-03  0.63971102759E-02  0.64224011863E-02  0.51109989000E-03 0. -1.
     -623    1    1    2    0    0 -0.26754370686E-03 -0.29848699050E-03  0.24966413371E-03  0.25126700004E+02  0.25126700000E+02 0.  1.
     -611    1    3    3    0    0  0.22597805825E-01  0.22116830566E-01  0.86948750189E+01  0.86949382637E+01  0.10000000000E-01 0. -1.
      611    1    3    3    0    0 -0.22312500510E-01 -0.21567986893E-01  0.32984781958E+01  0.32986393307E+01  0.10000000000E-01 0. -1.
</event>
<event>
 7   0  0.6206631E-02  0.9118800E+02  0.7818608E-02  0.1180000E+00
       11   -1    0    0    0    0  0.00000000000E+00  0.00000000000E+00  0.11999999989E+02  0.12000000000E+02  0.51109989000E-03 0.  1.
     -623   -1    0    0    0    0  0.00000000000E+00  0.00000000000E+00  0.42561509872E-11  0.25126700000E+02  0.25126700000E+02 0. -1.
      622    2    1    2    0    0  0.67824610242E-03  0.48861253571E-02  0.10866596786E+02  0.10867287544E+02  0.12242757361E+00 0.  0.
       11    1    1    2    0    0 -0.21760715861E-02 -0.36910624156E-02  0.11327041539E+01  0.11327123733E+01  0.51109989000E-03 0.  1.
     -623    1    1    2    0    0  0.14978254837E-02 -0.11950629415E-02  0.69904891068E-03  0.25126700083E+02  0.25126700000E+02 0. -1.
     -611    1    3    3    0    0  0.28018897975E-01  0.54779731987E-01  0.45571884088E+01  0.45576147348E+01  0.10000000000E-01 0. -1.
      611    1    3    3    0    0 -0.27340651873E-01 -0.49893606630E-01  0.63094083775E+01  0.63096728091E+01  0.10000000000E-01 0.  1.
</event>
<event>
 7   0  0.6206631E-02  0.9118800E+02  0.7818608E-02  0.1180000E+00
       11   -1    0    0    0    0  0.00000000000E+00  0.00000000000E+00  0.11999999989E+02  0.12000000000E+02  0.51109989000E-03 0. -1.
     -623   -1    0    0    0    0  0.00000000000E+00  0.00000000000E+00  0.42561509872E-11  0.25126700000E+02  0.25126700000E+02 0.  1.
      622    2    1    2    0    0  0.46038713343E-02 -0.39346666955E-02  0.11913557684E+02  0.11913729054E+02  0.63612970969E-01 0.  0.
       11    1    1    2    0    0  0.12504195774E-03  0.42896178732E-02  0.86162178210E-01  0.86270496892E-01  0.51109989000E-03 0. -1.
     -623    1    1    2    0    0 -0.47289132921E-02 -0.35495117763E-03  0.28012708525E-03  0.25126700449E+02  0.25126700000E+02 0.  1.
     -611    1    3    3    0    0 -0.16870358830E-01  0.55675273171E-02  0.97427829899E+01  0.97428043188E+01  0.10000000000E-01 0. -1.
      611    1    3    3    0    0  0.21474230164E-01 -0.95021940126E-02  0.21707746938E+01  0.21709247351E+01  0.10000000000E-01 0.  1.
</event>
<event>
 7   0  0.6206631E-02  0.9118800E+02  0.7818608E-02  0.1180000E+00
       11   -1    0    0    0    0  0.00000000000E+00  0.00000000000E+00  0.11999999989E+02  0.12000000000E+02  0.51109989000E-03 0. -1.
     -623   -1    0    0    0    0  0.00000000000E+00  0.00000000000E+00  0.42561509872E-11  0.25126700000E+02  0.25126700000E+02 0. -1.
      622    2    1    2    0    0  0.26174976738E-02 -0.10174886138E-02  0.11986710818E+02  0.11987773060E+02  0.15955825454E+00 0.  0.
       11    1    1    2    0    0  0.32225814342E-02 -0.60360597441E-02  0.10117908942E-01  0.12225070666E-01  0.51109989000E-03 0. -1.
     -623    1    1    2    0    0 -0.58400791079E-02  0.70535483579E-02  0.31712625041E-02  0.25126701869E+02  0.25126700000E+02 0. -1.
     -611    1    3    3    0    0 -0.30061359325E-01  0.70527205425E-01  0.47680139812E+01  0.47686408019E+01  0.10000000000E-01 0.  1.
      611    1    3    3    0    0  0.32678856999E-01 -0.71544694039E-01  0.72186968364E+01  0.72191322586E+01  0.10000000000E-01 0. -1.
</event>
<event>
 7   0  0.6206631E-02  0.9118800E+02  0.7818608E-02  0.1180000E+00
       11   -1    0    0    0    0  0.00000000000E+00  0.00000000000E+00  0.11999999989E+02  0.12000000000E+02  0.51109989000E-03 0.  1.
     -623   -1    0    0    0    0  0.00000000000E+00  0.00000000000E+00  0.42561509872E-11  0.25126700000E+02  0.25126700000E+02 0.  1.
      622    2    1    2    0    0  0.13897468893E-01 -0.93582669676E-02  0.11691416578E+02  0.11691935145E+02  0.10883535754E+00 0.  0.
       11    1    1    2    0    0 -0.15718731297E-01  0.11766459969E-01  0.30743785959E+00  0.30806464715E+00  0.51109989000E-03 0.  1.
     -623    1    1    2    0    0  0.18212624032E-02 -0.24081930015E-02  0.11455519458E-02  0.25126700208E+02  0.25126700000E+02 0.  1.
     -611    1    3    3    0    0  0.40891245328E-01 -0.83986526796E-03  0.10656669242E+02  0.10656752419E+02  0.10000000000E-01 0.  1.
      611    1    3    3    0    0 -0.26993776435E-01 -0.85184016996E-02  0.10347473359E+01  0.10351827260E+01  0.10000000000E-01 0. -1.
</event>
<event>
 7   0  0.6206631E-02  0.9118800E+02  0.7818608E-02  0.1180000E+00
       11   -1    0    0    0    0  0.00000000000E+00  0.00000000000E+00  0.11999999989E+02  0.12000000000E+02  0.51109989000E-03 0. -1.
     -623   -1    0    0    0    0  0.00000000000E+00  0.00000000000E+00  0.42561509872E-11  0.25126700000E+02  0.25126700000E+02 0. -1.
      622    2    1    2    0    0 -0.19557986369E-01 -0.11538280166E+00  0.31500791567E+01  0.31537849407E+01  0.98311001239E-01 0.  0.
       11    1    1    2    0    0  0.37738064298E-01  0.13193437760E+00  0.88451381508E+01  0.88462025757E+01  0.51109989000E-03 0. -1.
     -623    1    1    2    0    0 -0.18180077929E-01 -0.16551575938E-01  0.47826815801E-02  0.25126712484E+02  0.25126700000E+02 0. -1.
     -611    1    3    3    0    0  0.12692741874E-01 -0.94616371197E-01  0.27661333146E+01  0.27677982002E+01  0.10000000000E-01 0. -1.
      611    1    3    3    0    0 -0.32250728243E-01 -0.20766430462E-01  0.38394584218E+00  0.38598674049E+00  0.10000000000E-01 0.  1.
</event>
<event>
 6   0  0.6206631E-02  0.9118800E+02  0.7818608E-02  0.1180000E+00
       11   -1    0    0    0    0  0.00000000000E+00  0.00000000000E+00  0.11999999989E+02  0.12000000000E+02  0.51109989000E-03 0.  1.
     -623   -1    0    0    0    0  0.00000000000E+00  0.00000000000E+00  0.42561509872E-11  0.25126700000E+02  0.25126700000E+02 0. -1.
       11    1    1    2    0    0 -0.81314334904E-01 -0.28923529990E+00  0.11594361247E+01  0.11977318015E+01  0.51109989000E-03 0.  1.
     -623    1    1    2    0    0  0.96133327003E-01  0.39312919108E-01  0.45255924432E-01  0.25126955409E+02  0.25126700000E+02 0. -1.
     -611    1    1    2    0    0 -0.93759275600E-01  0.14712471402E+00  0.26938009305E+01  0.26994628978E+01  0.10000000000E-01 0. -1.
      611    1    1    2    0    0  0.78940283500E-01  0.10279766677E+00  0.81015070095E+01  0.81025498920E+01  0.10000000000E-01 0.  1.
</event>
<event>
 7   0  0.6206631E-02  0.9118800E+02  0.7818608E-02  0.1180000E+00
       11   -1    0    0    0    0  0.00000000000E+00  0.00000000000E+00  0.11999999989E+02  0.12000000000E+02  0.51109989000E-03 0. -1.
     -623   -1    0    0    0    0  0.00000000000E+00  0.00000000000E+00  0.42561509872E-11  0.25126700000E+02  0.25126700000E+02 0.  1.
      622    2    1    2    0    0  0.79307732460E-01 -0.12265482905E-01  0.51922811360E+01  0.51936105508E+01  0.85831224861E-01 0.  0.
       11    1    1    2    0    0 -0.74356796225E-01  0.18426384130E-01  0.68059570117E+01  0.68063881444E+01  0.51109989000E-03 0. -1.
     -623    1    1    2    0    0 -0.49509362349E-02 -0.61609012248E-02  0.17618413316E-02  0.25126701305E+02  0.25126700000E+02 0.  1.
     -611    1    3    3    0    0  0.25557905193E-01 -0.10636137723E-01  0.39670102635E+01  0.39671194543E+01  0.10000000000E-01 0. -1.
      611    1    3    3    0    0  0.53749827267E-01 -0.16293451828E-02  0.12252708725E+01  0.12264910965E+01  0.10000000000E-01 0.  1.
</event>
<event>
 7   0  0.6206631E-02  0.9118800E+02  0.7818608E-02  0.1180000E+00
       11   -1    0    0    0    0  0.00000000000E+00  0.00000000000E+00  0.11999999989E+02  0.12000000000E+02  0.51109989000E-03 0. -1.
     -623   -1    0    0    0    0  0.00000000000E+00  0.00000000000E+00  0.42561509872E-11  0.25126700000E+02  0.25126700000E+02 0. -1.
      622    2    1    2    0    0  0.24390242131E-03  0.35117539029E-02  0.11994352813E+02  0.11995715781E+02  0.18079079168E+00 0.  0.
       11    1    1    2    0    0  0.39853549282E-02 -0.10459202428E-03 -0.14783871895E-02  0.42826213030E-02  0.51109989000E-03 0. -1.
     -623    1    1    2    0    0 -0.42292573495E-02 -0.34071618786E-02  0.71255631665E-02  0.25126701597E+02  0.25126700000E+02 0. -1.
     -611    1    3    3    0    0 -0.74148362488E-02  0.65480389990E-01  0.19065110981E+01  0.19076758709E+01  0.10000000000E-01 0.  1.
      611    1    3    3    0    0  0.76587386701E-02 -0.61968636087E-01  0.10087841715E+02  0.10088039910E+02  0.10000000000E-01 0. -1.
</event>
<event>
 7   0  0.6206631E-02  0.9118800E+02  0.7818608E-02  0.1180000E+00
       11   -1    0    0    0    0  0.00000000000E+00  0.00000000000E+00  0.11999999989E+02  0.12000000000E+02  0.51109989000E-03 0.  1.
     -623   -1    0    0    0    0  0.00000000000E+00  0.00000000000E+00  0.42561509872E-11  0.25126700000E+02  0.25126700000E+02 0.  1.
      622    2    1    2    0    0  0.41152346878E-01 -0.24924494406E-01  0.90049522118E+01  0.90058545646E+01  0.11805657852E+00 0.  0.
       11    1    1    2    0    0 -0.38495151638E-01  0.35553431109E-01  0.29936843820E+01  0.29941430098E+01  0.51109989000E-03 0.  1.
     -623    1    1    2    0    0 -0.26571952402E-02 -0.10628936703E-01  0.13633953443E-02  0.25126702426E+02  0.25126700000E+02 0.  1.
     -611    1    3    3    0    0  0.92658433410E-02  0.46269836780E-01  0.30096843869E+01  0.30100709066E+01  0.10000000000E-01 0.  1.
      611    1    3    3    0    0  0.31886503537E-01 -0.71194331187E-01  0.59952678248E+01  0.59957836580E+01  0.10000000000E-01 0. -1.
</event>
<event>
 7   0  0.6206631E-02  0.9118800E+02  0.7818608E-02  0.1180000E+00
       11   -1    0    0    0    0  0.00000000000E+00  0.00000000000E+00  0.11999999989E+02  0.12000000000E+02  0.51109989000E-03 0. -1.
     -623   -1    0    0    0    0  0.00000000000E+00  0.00000000000E+00  0.42561509872E-11  0.25126700000E+02  0.25126700000E+02 0.  1.
      622    2    1    2    0    0  0.28971985079E-01  0.11927373971E-01  0.11609539416E+02  0.11610095147E+02  0.10918897084E+00 0.  0.
       11    1    1    2    0    0 -0.22770052102E-01 -0.42411140720E-01  0.38690197753E+00  0.38988534414E+00  0.51109989000E-03 0. -1.
     -623    1    1    2    0    0 -0.62019329776E-02  0.30483766749E-01  0.35585955443E-02  0.25126719509E+02  0.25126700000E+02 0.  1.
     -611    1    3    3    0    0 -0.11267344770E-01 -0.42543277614E-01  0.45493330949E+01  0.45495569556E+01  0.10000000000E-01 0.  1.
      611    1    3    3    0    0  0.40239329850E-01  0.54470651585E-01  0.70602063211E+01  0.70605381914E+01  0.10000000000E-01 0. -1.
</event>
<event>
 7   0  0.6206631E-02  0.9118800E+02  0.7818608E-02  0.1180000E+00
       11   -1    0    0    0    0  0.00000000000E+00  0.00000000000E+00  0.11999999989E+02  0.12000000000E+02  0.51109989000E-03 0. -1.
     -623   -1    0    0    0    0  0.00000000000E+00  0.00000000000E+00  0.42561509872E-11  0.25126700000E+02  0.25126700000E+02 0.  1.
      622    2    1    2    0    0  0.47178086475E-02  0.10426192934E-01  0.80646619303E+01  0.80654980357E+01  0.11556622022E+00 0.  0.
       11    1    1    2    0    0  0.96470477920E-02 -0.13492063308E-01  0.39344626623E+01  0.39344976558E+01  0.51109989000E-03 0. -1.
     -623    1    1    2    0    0 -0.14364856439E-01  0.30658703737E-02  0.87539653058E-03  0.25126704308E+02  0.25126700000E+02 0.  1.
     -611    1    3    3    0    0  0.39688893494E-01 -0.34565894544E-01  0.50249368530E+01  0.50252224215E+01  0.10000000000E-01 0. -1.
      611    1    3    3    0    0 -0.34971084846E-01  0.44992087478E-01  0.30397250773E+01  0.30402756142E+01  0.10000000000E-01 0.  1.
</event>
<event>
 7   0  0.6206631E-02  0.9118800E+02  0.7818608E-02  0.1180000E+00
       11   -1    0    0    0    0  0.00000000000E+00  0.00000000000E+00  0.11999999989E+02  0.12000000000E+02  0.51109989000E-03 0.  1.
     -623   -1    0    0    0    0  0.00000000000E+00  0.00000000000E+00  0.42561509872E-11  0.25126700000E+02  0.25126700000E+02 0. -1.
      622    2    1    2    0    0 -0.15667958950E-02  0.29008278667E-02  0.11993146126E+02  0.11993505614E+02  0.92801072284E-01 0.  0.
       11    1    1    2    0    0  0.16604116362E-04 -0.31287165050E-02  0.56679529686E-02  0.64943095591E-02  0.51109989000E-03 0.  1.
     -623    1    1    2    0    0  0.15501917787E-02  0.22788863835E-03  0.11859103495E-02  0.25126700077E+02  0.25126700000E+02 0. -1.
     -611    1    3    3    0    0  0.41626327650E-02  0.18387312475E-01  0.66362683581E+00  0.66396987731E+00  0.10000000000E-01 0.  1.
      611    1    3    3    0    0 -0.57294286600E-02 -0.15486484609E-01  0.11329519290E+02  0.11329535736E+02  0.10000000000E-01 0.  1.
</event>
<event>
 7   0  0.6206631E-02  0.9118800E+02  0.7818608E-02  0.1180000E+00
       11   -1    0    0    0    0  0.00000000000E+00  0.00000000000E+00  0.11999999989E+02  0.12000000000E+02  0.51109989000E-03 0.  1.
     -623   -1    0    0    0    0  0.00000000000E+00  0.00000000000E+00  0.42561509872E-11  0.25126700000E+02  0.25126700000E+02 0.  1.
      622    2    1    2    0    0 -0.96303074394E-02 -0.15216089890E-01  0.11842606257E+02  0.11843876232E+02  0.17250210859E+00 0.  0.
       11    1    1    2    0    0  0.25974232663E-01  0.46735023693E-02  0.15386825452E+00  0.15611599328E+00  0.51109989000E-03 0.  1.
     -623    1    1    2    0    0 -0.16343925224E-01  0.10542587521E-01  0.35254778453E-02  0.25126707775E+02  0.25126700000E+02 0.  1.
     -611    1    3    3    0    0  0.19729195914E-02  0.53091107946E-01  0.14112299017E+01  0.14122649870E+01  0.10000000000E-01 0. -1.
      611    1    3    3    0    0 -0.11603227031E-01 -0.68307197836E-01  0.10431376355E+02  0.10431611245E+02  0.10000000000E-01 0.  1.
</event>
<event>
 7   0  0.6206631E-02  0.9118800E+02  0.7818608E-02  0.1180000E+00
       11   -1    0    0    0    0  0.00000000000E+00  0.00000000000E+00  0.11999999989E+02  0.12000000000E+02  0.51109989000E-03 0.  1.
     -623   -1    0    0    0    0  0.00000000000E+00  0.00000000000E+00  0.42561509872E-11  0.25126700000E+02  0.25126700000E+02 0.  1.
      622    2    1    2    0    0 -0.15905295558E-02 -0.67307793459E-03  0.11961187385E+02  0.11961646403E+02  0.10477608138E+00 0.  0.
       11    1    1    2    0    0 -0.38806466784E-03 -0.64314979346E-03  0.38342717096E-01  0.38353479807E-01  0.51109989000E-03 0.  1.
     -623    1    1    2    0    0  0.19785942236E-02  0.13162277281E-02  0.46988654720E-03  0.25126700117E+02  0.25126700000E+02 0.  1.
     -611    1    3    3    0    0  0.74668568826E-02  0.10279340322E-01  0.11624196350E+02  0.11624207595E+02  0.10000000000E-01 0.  1.
      611    1    3    3    0    0 -0.90573864384E-02 -0.10952418256E-01  0.33699103546E+00  0.33743880882E+00  0.10000000000E-01 0. -1.
</event>
<event>
 7   0  0.6206631E-02  0.9118800E+02  0.7818608E-02  0.1180000E+00
       11   -1    0    0    0    0  0.00000000000E+00  0.00000000000E+00  0.11999999989E+02  0.12000000000E+02  0.51109989000E-03 0.  1.
     -623   -1    0    0    0    0  0.00000000000E+00  0.00000000000E+00  0.42561509872E-11  0.25126700000E+02  0.25126700000E+02 0.  1.
      622    2    1    2    0    0  0.30202956045E-01  0.50017196230E-02  0.81921474393E+01  0.81926938078E+01  0.89526113365E-01 0.  0.
       11    1    1    2    0    0 -0.30071775641E-01 -0.57299940645E-02  0.38071830642E+01  0.38073061724E+01  0.51109989000E-03 0.  1.
     -623    1    1    2    0    0 -0.13118040428E-03  0.72827444147E-03  0.66948556887E-03  0.25126700020E+02  0.25126700000E+02 0.  1.
     -611    1    3    3    0    0  0.16937922894E-01  0.34517007428E-01  0.68627719865E+01  0.68628869768E+01  0.10000000000E-01 0.  1.
      611    1    3    3    0    0  0.13265033152E-01 -0.29515287805E-01  0.13293754528E+01  0.13298068310E+01  0.10000000000E-01 0. -1.
</event>
<event>
 7   0  0.6206631E-02  0.9118800E+02  0.7818608E-02  0.1180000E+00
       11   -1    0    0    0    0  0.00000000000E+00  0.00000000000E+00  0.11999999989E+02  0.12000000000E+02  0.51109989000E-03 0.  1.
     -623   -1    0    0    0    0  0.00000000000E+00  0.00000000000E+00  0.42561509872E-11  0.25126700000E+02  0.25126700000E+02 0.  1.
      622    2    1    2    0    0  0.13337457555E-01 -0.10236183013E-01  0.76148254715E+01  0.76153854695E+01  0.90808695879E-01 0.  0.
       11    1    1    2    0    0 -0.14667395651E-01  0.15784335218E-01  0.43845609013E+01  0.43846138753E+01  0.51109989000E-03 0.  1.
     -623    1    1    2    0    0  0.13299380956E-02 -0.55481522046E-02  0.61361634429E-03  0.25126700655E+02  0.25126700000E+02 0.  1.
     -611    1    3    3    0    0  0.28147834253E-01 -0.27631442571E-01  0.69085533768E+01  0.69086732125E+01  0.10000000000E-01 0.  1.
      611    1    3    3    0    0 -0.14810376698E-01  0.17395259557E-01  0.70627209472E+00  0.70671225692E+00  0.10000000000E-01 0. -1.
</event>
<event>
 7   0  0.6206631E-02  0.9118800E+02  0.7818608E-02  0.1180000E+00
       11   -1    0    0    0    0  0.00000000000E+00  0.00000000000E+00  0.11999999989E+02  0.12000000000E+02  0.51109989000E-03 0.  1.
     -623   -1    0    0    0    0  0.00000000000E+00  0.00000000000E+00  0.42561509872E-11  0.25126700000E+02  0.25126700000E+02 0.  1.
      622    2    1    2    0    0  0.46201311287E-02 -0.75021359972E-02  0.11939850735E+02  0.11940718377E+02  0.14367375728E+00 0.  0.
       11    1    1    2    0    0 -0.36456514336E-02  0.46724185079E-03  0.59164340921E-01  0.59280600107E-01  0.51109989000E-03 0.  1.
     -623    1    1    2    0    0 -0.97447969516E-03  0.70348941465E-02  0.98491295095E-03  0.25126701023E+02  0.25126700000E+02 0.  1.
     -611    1    3    3    0    0  0.42873873873E-01 -0.15862241278E-01  0.10875494892E+02  0.10875595567E+02  0.10000000000E-01 0.  1.
      611    1    3    3    0    0 -0.38253742745E-01  0.83601052812E-02  0.10643558428E+01  0.10651228099E+01  0.10000000000E-01 0. -1.
</event>
<event>
 7   0  0.6206631E-02  0.9118800E+02  0.7818608E-02  0.1180000E+00
       11   -1    0    0    0    0  0.00000000000E+00  0.00000000000E+00  0.11999999989E+02  0.12000000000E+02  0.51109989000E-03 0.  1.
     -623   -1    0    0    0    0  0.00000000000E+00  0.00000000000E+00  0.42561509872E-11  0.25126700000E+02  0.25126700000E+02 0. -1.
      622    2    1    2    0    0  0.23864632146E-02 -0.20622567641E-02  0.11993915253E+02  0.11994168869E+02  0.77934690300E-01 0.  0.
       11    1    1    2    0    0 -0.35101426695E-02 -0.35439659215E-02  0.29749346814E-02  0.58302877718E-02  0.51109989000E-03 0.  1.
     -623    1    1    2    0    0  0.11236794549E-02  0.56062226856E-02  0.31098012915E-02  0.25126700843E+02  0.25126700000E+02 0. -1.
     -611    1    3    3    0    0 -0.10663420083E-01  0.28754461351E-01  0.88647139833E+01  0.88647726724E+01  0.10000000000E-01 0.  1.
      611    1    3    3    0    0  0.13049883297E-01 -0.30816718115E-01  0.31292012698E+01  0.31293961968E+01  0.10000000000E-01 0. -1.
</event>
<event>
 7   0  0.6206631E-02  0.9118800E+02  0.7818608E-02  0.1180000E+00
       11   -1    0    0    0    0  0.00000000000E+00  0.00000000000E+00  0.11999999989E+02  0.12000000000E+02  0.51109989000E-03 0. -1.
     -623   -1    0    0    0    0  0.00000000000E+00  0.00000000000E+00  0.42561509872E-11  0.25126700000E+02  0.25126700000E+02 0.  1.
      622    2    1    2    0    0 -0.27018342083E-02  0.20917462867E-02  0.11969933548E+02  0.11970234810E+02  0.84856234136E-01 0.  0.
       11    1    1    2    0    0  0.28506473933E-02 -0.19916923441E-02  0.29556927148E-01  0.29765184268E-01  0.51109989000E-03 0. -1.
     -623    1    1    2    0    0 -0.14881318506E-03 -0.10005394266E-03  0.50951374418E-03  0.25126700006E+02  0.25126700000E+02 0.  1.
     -611    1    3    3    0    0  0.15353462861E-01 -0.68409310222E-03  0.59553637683E+00  0.59581857384E+00  0.10000000000E-01 0. -1.
      611    1    3    3    0    0 -0.18055297069E-01  0.27758393890E-02  0.11374397171E+02  0.11374416236E+02  0.10000000000E-01 0. -1.
</event>
<event>
 7   0  0.6206631E-02  0.9118800E+02  0.7818608E-02  0.1180000E+00
       11   -1    0    0    0    0  0.00000000000E+00  0.00000000000E+00  0.11999999989E+02  0.12000000000E+02  0.51109989000E-03 0.  1.
     -623   -1    0    0    0    0  0.00000000000E+00  0.00000000000E+00  0.42561509872E-11  0.25126700000E+02  0.25126700000E+02 0.  1.
      622    2    1    2    0    0 -0.97156646838E-02 -0.16118028698E-01  0.11918314690E+02  0.11918508439E+02  0.65300549117E-01 0.  0.
       11    1    1    2    0    0 -0.76910198064E-02 -0.10527218677E-01  0.80419830857E-01  0.81471372499E-01  0.51109989000E-03 0.  1.
     -623    1    1    2    0    0  0.17406684490E-01  0.26645247375E-01  0.12654681174E-02  0.25126720189E+02  0.25126700000E+02 0.  1.
     -611    1    3    3    0    0  0.17472656878E-01 -0.13023116522E-01  0.18986121461E+01  0.18987635389E+01  0.10000000000E-01 0. -1.
      611    1    3    3    0    0 -0.27188321562E-01 -0.30949121762E-02  0.10019702544E+02  0.10019744900E+02  0.10000000000E-01 0.  1.
</event>
<event>
 7   0  0.6206631E-02  0.9118800E+02  0.7818608E-02  0.1180000E+00
       11   -1    0    0    0    0  0.00000000000E+00  0.00000000000E+00  0.11999999989E+02  0.12000000000E+02  0.51109989000E-03 0. -1.
     -623   -1    0    0    0    0  0.00000000000E+00  0.00000000000E+00  0.42561509872E-11  0.25126700000E+02  0.25126700000E+02 0.  1.
      622    2    1    2    0    0 -0.62952838040E-03 -0.37317828245E-01  0.86458492287E+01  0.86468904007E+01  0.12888638408E+00 0.  0.
       11    1    1    2    0    0  0.60083386179E-01  0.65062119907E-02  0.33524755953E+01  0.33530203135E+01  0.51109989000E-03 0. -1.
     -623    1    1    2    0    0 -0.59453857799E-01  0.30811616255E-01  0.16751650874E-02  0.25126789286E+02  0.25126700000E+02 0.  1.
     -611    1    3    3    0    0 -0.59489792782E-01 -0.30069118789E-01  0.32044055220E+01  0.32051143407E+01  0.10000000000E-01 0.  1.
      611    1    3    3    0    0  0.58860264402E-01 -0.72487094562E-02  0.54414437067E+01  0.54417760600E+01  0.10000000000E-01 0. -1.
</event>
<event>
 7   0  0.6206631E-02  0.9118800E+02  0.7818608E-02  0.1180000E+00
       11   -1    0    0    0    0  0.00000000000E+00  0.00000000000E+00  0.11999999989E+02  0.12000000000E+02  0.51109989000E-03 0.  1.
     -623   -1    0    0    0    0  0.00000000000E+00  0.00000000000E+00  0.42561509872E-11  0.25126700000E+02  0.25126700000E+02 0. -1.
      622    2    1    2    0    0  0.91675858075E-02 -0.17786938494E-01  0.11750305517E+02  0.11750987459E+02  0.12500438762E+00 0.  0.
       11    1    1    2    0    0  0.19349959719E-01  0.36128117287E-01  0.24559267704E+00  0.24898932917E+00  0.51109989000E-03 0.  1.
     -623    1    1    2    0    0 -0.28517545527E-01 -0.18341178793E-01  0.41017949920E-02  0.25126723212E+02  0.25126700000E+02 0. -1.
     -611    1    3    3    0    0  0.37931227543E-01  0.76752490390E-02  0.10449463783E+02  0.10449540231E+02  0.10000000000E-01 0.  1.
      611    1    3    3    0    0 -0.28763641736E-01 -0.25462187533E-01  0.13008417340E+01  0.13014472279E+01  0.10000000000E-01 0. -1.
</event>
<event>
 7   0  0.6206631E-02  0.9118800E+02  0.7818608E-02  0.1180000E+00
       11   -1    0    0    0    0  0.00000000000E+00  0.00000000000E+00  0.11999999989E+02  0.12000000000E+02  0.51109989000E-03 0.  1.
     -623   -1    0    0    0    0  0.00000000000E+00  0.00000000000E+00  0.42561509872E-11  0.25126700000E+02  0.25126700000E+02 0.  1.
      622    2    1    2    0    0 -0.45449819231E-02 -0.15682590455E-02  0.11977352753E+02  0.11977762814E+02  0.98994669019E-01 0.  0.
       11    1    1    2    0    0  0.20519282433E-02 -0.14012330100E-01  0.17129744415E-01  0.22231625474E-01  0.51109989000E-03 0.  1.
     -623    1    1    2    0    0  0.24930536798E-02  0.15580589146E-01  0.55174913453E-02  0.25126705560E+02  0.25126700000E+02 0.  1.
     -611    1    3    3    0    0  0.28678108055E-01  0.29304819843E-01  0.30836536250E+01  0.30839424257E+01  0.10000000000E-01 0. -1.
      611    1    3    3    0    0 -0.33223089978E-01 -0.30873078889E-01  0.88936991284E+01  0.88938203887E+01  0.10000000000E-01 0.  1.
</event>
<event>
 7   0  0.6206631E-02  0.9118800E+02  0.7818608E-02  0.1180000E+00
       11   -1    0    0    0    0  0.00000000000E+00  0.00000000000E+00  0.11999999989E+02  0.12000000000E+02  0.51109989000E-03 0.  1.
     -623   -1    0    0    0    0  0.00000000000E+00  0.00000000000E+00  0.42561509872E-11  0.25126700000E+02  0.25126700000E+02 0. -1.
      622    2    1    2    0    0 -0.31866286110E-01 -0.28864534189E-01  0.10642538303E+02  0.10642946959E+02  0.82763602468E-01 0.  0.
       11    1    1    2    0    0  0.43513606355E-01  0.18371288376E-01  0.13562257927E+01  0.13570481201E+01  0.51109989000E-03 0.  1.
     -623    1    1    2    0    0 -0.11647320245E-01  0.10493245813E-01  0.12358931883E-02  0.25126704921E+02  0.25126700000E+02 0. -1.
     -611    1    3    3    0    0 -0.50124801538E-01 -0.86609519364E-02  0.90225702190E+01  0.90227191503E+01  0.10000000000E-01 0.  1.
      611    1    3    3    0    0  0.18258515428E-01 -0.20203582253E-01  0.16199680842E+01  0.16202278087E+01  0.10000000000E-01 0. -1.
</event>
<event>
 7   0  0.6206631E-02  0.9118800E+02  0.7818608E-02  0.1180000E+00
       11   -1    0    0    0    0  0.00000000000E+00  0.00000000000E+00  0.11999999989E+02  0.12000000000E+02  0.51109989000E-03 0.  1.
     -623   -1    0    0    0    0  0.00000000000E+00  0.00000000000E+00  0.42561509872E-11  0.25126700000E+02  0.25126700000E+02 0.  1.
      622    2    1    2    0    0  0.44886963537E-01  0.20732781786E-03  0.11777086367E+02  0.11777698040E+02  0.11132359661E+00 0.  0.
       11    1    1    2    0    0 -0.34797202038E-01 -0.13727451001E-01  0.21912545976E+00  0.22229601103E+00  0.51109989000E-03 0.  1.
     -623    1    1    2    0    0 -0.10089761500E-01  0.13520123183E-01  0.37881621823E-02  0.25126705949E+02  0.25126700000E+02 0.  1.
     -611    1    3    3    0    0  0.67994820424E-01  0.34426766040E-01  0.81659384007E+01  0.81663001697E+01  0.10000000000E-01 0. -1.
      611    1    3    3    0    0 -0.23107856887E-01 -0.34219438222E-01  0.36111479664E+01  0.36113978704E+01  0.10000000000E-01 0.  1.
</event>
<event>
 7   0  0.6206631E-02  0.9118800E+02  0.7818608E-02  0.1180000E+00
       11   -1    0    0    0    0  0.00000000000E+00  0.00000000000E+00  0.11999999989E+02  0.12000000000E+02  0.51109989000E-03 0.  1.
     -623   -1    0    0    0    0  0.00000000000E+00  0.00000000000E+00  0.42561509872E-11  0.25126700000E+02  0.25126700000E+02 0. -1.
      622    2    1    2    0    0 -0.22504687328E-02  0.11831890706E-01  0.11262118630E+02  0.11262480776E+02  0.89510455163E-01 0.  0.
       11    1    1    2    0    0 -0.10086106754E-03 -0.95629158324E-02  0.73745682369E+00  0.73751900827E+00  0.51109989000E-03 0.  1.
     -623    1    1    2    0    0  0.23513298004E-02 -0.22689748737E-02  0.42453514116E-03  0.25126700216E+02  0.25126700000E+02 0. -1.
     -611    1    3    3    0    0 -0.17193379491E-01  0.18670481959E-01  0.10697068745E+02  0.10697103530E+02  0.10000000000E-01 0.  1.
      611    1    3    3    0    0  0.14942910758E-01 -0.68385912527E-02  0.56504988531E+00  0.56537724556E+00  0.10000000000E-01 0. -1.
</event>
<event>
 7   0  0.6206631E-02  0.9118800E+02  0.7818608E-02  0.1180000E+00
       11   -1    0    0    0    0  0.00000000000E+00  0.00000000000E+00  0.11999999989E+02  0.12000000000E+02  0.51109989000E-03 0. -1.
     -623   -1    0    0    0    0  0.00000000000E+00  0.00000000000E+00  0.42561509872E-11  0.25126700000E+02  0.25126700000E+02 0. -1.
      622    2    1    2    0    0 -0.38491029220E-01  0.36299309648E-02  0.98455132906E+01  0.98460768171E+01  0.97989771823E-01 0.  0.
       11    1    1    2    0    0  0.39590662130E-01 -0.69424852629E-02  0.21535477887E+01  0.21539229230E+01  0.51109989000E-03 0. -1.
     -623    1    1    2    0    0 -0.10996329097E-02  0.33125542981E-02  0.93890975268E-03  0.25126700260E+02  0.25126700000E+02 0. -1.
     -611    1    3    3    0    0 -0.21084115958E-01  0.10796028089E-01  0.94158613302E+01  0.94158964355E+01  0.10000000000E-01 0. -1.
      611    1    3    3    0    0 -0.17406913263E-01 -0.71660971238E-02  0.42965196043E+00  0.43018038156E+00  0.10000000000E-01 0.  1.
</event>
<event>
 7   0  0.6206631E-02  0.9118800E+02  0.7818608E-02  0.1180000E+00
       11   -1    0    0    0    0  0.00000000000E+00  0.00000000000E+00  0.11999999989E+02  0.12000000000E+02  0.51109989000E-03 0.  1.
     -623   -1    0    0    0    0  0.00000000000E+00  0.00000000000E+00  0.42561509872E-11  0.25126700000E+02  0.25126700000E+02 0. -1.
      622    2    1    2    0    0 -0.18884710246E-03  0.64877049472E-03  0.11957578536E+02  0.11958114148E+02  0.11317713344E+00 0.  0.
       11    1    1    2    0    0 -0.15940266044E-02 -0.27952925874E-02  0.41758772677E-01  0.41885688488E-01  0.51109989000E-03 0.  1.
     -623    1    1    2    0    0  0.17828737069E-02  0.21465220926E-02  0.66268011088E-03  0.25126700164E+02  0.25126700000E+02 0. -1.
     -611    1    3    3    0    0 -0.50504489661E-01  0.21053243850E-01  0.72115839527E+01  0.72117984615E+01  0.10000000000E-01 0.  1.
      611    1    3    3    0    0  0.50315642559E-01 -0.20404473355E-01  0.47459945837E+01  0.47463156864E+01  0.10000000000E-01 0. -1.
</event>
<event>
 7   0  0.6206631E-02  0.9118800E+02  0.7818608E-02  0.1180000E+00
       11   -1    0    0    0    0  0.00000000000E+00  0.00000000000E+00  0.11999999989E+02  0.12000000000E+02  0.51109989000E-03 0. -1.
     -623   -1    0    0    0    0  0.00000000000E+00  0.00000000000E+00  0.42561509872E-11  0.25126700000E+02  0.25126700000E+02 0.  1.
      622    2    1    2    0    0 -0.11801117700E-01 -0.13633443745E-01  0.11946809154E+02  0.11947140981E+02  0.87198214379E-01 0.  0.
       11    1    1    2    0    0  0.14596979273E-01  0.10919761657E-01  0.49612929608E-01  0.52858462009E-01  0.51109989000E-03 0. -1.
     -623    1    1    2    0    0 -0.27958615722E-02  0.27136820883E-02  0.35779056786E-02  0.25126700557E+02  0.25126700000E+02 0.  1.
     -611    1    3    3    0    0  0.18831809063E-01  0.12823116190E-02  0.82909504232E+00  0.82937016497E+00  0.10000000000E-01 0.  1.
      611    1    3    3    0    0 -0.30632926764E-01 -0.14915755364E-01  0.11117714111E+02  0.11117770816E+02  0.10000000000E-01 0. -1.
</event>
<event>
 7   0  0.6206631E-02  0.9118800E+02  0.7818608E-02  0.1180000E+00
       11   -1    0    0    0    0  0.00000000000E+00  0.00000000000E+00  0.11999999989E+02  0.12000000000E+02  0.51109989000E-03 0. -1.
     -623   -1    0    0    0    0  0.00000000000E+00  0.00000000000E+00  0.42561509872E-11  0.25126700000E+02  0.25126700000E+02 0. -1.
      622    2    1    2    0    0  0.36003436735E-03  0.14830658036E-02  0.11532032050E+02  0.11532323581E+02  0.81985604947E-01 0.  0.
       11    1    1    2    0    0 -0.18863931903E-02 -0.37253231322E-03  0.46767211409E+00  0.46767634618E+00  0.51109989000E-03 0. -1.
     -623    1    1    2    0    0  0.15263588229E-02 -0.11105334904E-02  0.29582459135E-03  0.25126700073E+02  0.25126700000E+02 0. -1.
     -611    1    3    3    0    0  0.37002307177E-01 -0.14117758303E-01  0.54789125738E+01  0.54790648357E+01  0.10000000000E-01 0.  1.
      611    1    3    3    0    0 -0.36642272810E-01  0.15600824107E-01  0.60531194766E+01  0.60532587455E+01  0.10000000000E-01 0. -1.
</event>
<event>
 7   0  0.6206631E-02  0.9118800E+02  0.7818608E-02  0.1180000E+00
       11   -1    0    0    0    0  0.00000000000E+00  0.00000000000E+00  0.11999999989E+02  0.12000000000E+02  0.51109989000E-03 0.  1.
     -623   -1    0    0    0    0  0.00000000000E+00  0.00000000000E+00  0.42561509872E-11  0.25126700000E+02  0.25126700000E+02 0. -1.
      622    2    1    2    0    0 -0.12885764495E-01  0.62200726728E-01  0.10462191770E+02  0.10462781697E+02  0.91154994341E-01 0.  0.
       11    1    1    2    0    0  0.26468999702E-02  0.28003510408E-01  0.15367967992E+01  0.15370542820E+01  0.51109989000E-03 0.  1.
     -623    1    1    2    0    0  0.10238864525E-01 -0.90204237136E-01  0.10114203691E-02  0.25126864021E+02  0.25126700000E+02 0. -1.
     -611    1    3    3    0    0 -0.29779986572E-01  0.11020370477E-01  0.75539869473E+01  0.75540603053E+01  0.10000000000E-01 0.  1.
      611    1    3    3    0    0  0.16894222077E-01  0.51180356252E-01  0.29082048223E+01  0.29087213913E+01  0.10000000000E-01 0. -1.
</event>
<event>
 7   0  0.6206631E-02  0.9118800E+02  0.7818608E-02  0.1180000E+00
       11   -1    0    0    0    0  0.00000000000E+00  0.00000000000E+00  0.11999999989E+02  0.12000000000E+02  0.51109989000E-03 0. -1.
     -623   -1    0    0    0    0  0.00000000000E+00  0.00000000000E+00  0.42561509872E-11  0.25126700000E+02  0.25126700000E+02 0. -1.
      622    2    1    2    0    0  0.19777064091E+00 -0.22863612326E-01  0.86644957309E+01  0.86673044490E+01  0.95100835442E-01 0.  0.
       11    1    1    2    0    0 -0.63304682807E-01  0.81208650058E-01  0.33306762759E+01  0.33322675529E+01  0.51109989000E-03 0. -1.
     -623    1    1    2    0    0 -0.13446595810E+00 -0.58345037732E-01  0.48279823000E-02  0.25127127998E+02  0.25126700000E+02 0. -1.
     -611    1    3    3    0    0  0.17455873442E+00 -0.38949363199E-01  0.60885954876E+01  0.60912299920E+01  0.10000000000E-01 0. -1.
      611    1    3    3    0    0  0.23211906490E-01  0.16085750873E-01  0.25759002434E+01  0.25760744569E+01  0.10000000000E-01 0.  1.
</event>
<event>
 7   0  0.6206631E-02  0.9118800E+02  0.7818608E-02  0.1180000E+00
       11   -1    0    0    0    0  0.00000000000E+00  0.00000000000E+00  0.11999999989E+02  0.12000000000E+02  0.51109989000E-03 0. -1.
     -623   -1    0    0    0    0  0.00000000000E+00  0.00000000000E+00  0.42561509872E-11  0.25126700000E+02  0.25126700000E+02 0. -1.
      622    2    1    2    0    0  0.35882413759E-02 -0.51921591778E-02  0.11664397990E+02  0.11664901240E+02  0.10816948632E+00 0.  0.
       11    1    1    2    0    0 -0.84290565205E-02  0.82930959245E-02  0.33488900518E+00  0.33509809228E+00  0.51109989000E-03 0. -1.
     -623    1    1    2    0    0  0.48408151446E-02 -0.31009367467E-02  0.71299406806E-03  0.25126700668E+02  0.25126700000E+02 0. -1.
     -611    1    3    3    0    0 -0.26837803533E-01 -0.47180904028E-01  0.54911308228E+01  0.54914081999E+01  0.10000000000E-01 0. -1.
      611    1    3    3    0    0  0.30426044909E-01  0.41988744850E-01  0.61732671671E+01  0.61734930400E+01  0.10000000000E-01 0. -1.
</event>
<event>
 7   0  0.6206631E-02  0.9118800E+02  0.7818608E-02  0.1180000E+00
       11   -1    0    0    0    0  0.00000000000E+00  0.00000000000E+00  0.11999999989E+02  0.12000000000E+02  0.51109989000E-03 0. -1.
     -623   -1    0    0    0    0  0.00000000000E+00  0.00000000000E+00  0.42561509872E-11  0.25126700000E+02  0.25126700000E+02 0.  1.
      622    2    1    2    0    0 -0.13652692591E-01  0.37959002716E-01  0.10870003327E+02  0.10870575995E+02  0.10403296084E+00 0.  0.
       11    1    1    2    0    0  0.18287809488E-01 -0.38119941817E-01  0.11286317811E+01  0.11294235399E+01  0.51109989000E-03 0. -1.
     -623    1    1    2    0    0 -0.46351168967E-02  0.16093910106E-03  0.13648812406E-02  0.25126700465E+02  0.25126700000E+02 0.  1.
     -611    1    3    3    0    0 -0.40612656543E-01 -0.19250214490E-01  0.54496842149E+01  0.54498787144E+01  0.10000000000E-01 0.  1.
      611    1    3    3    0    0  0.26959963952E-01  0.57209217205E-01  0.54203191118E+01  0.54206972806E+01  0.10000000000E-01 0. -1.
</event>
<event>
 7   0  0.6206631E-02  0.9118800E+02  0.7818608E-02  0.1180000E+00
       11   -1    0    0    0    0  0.00000000000E+00  0.00000000000E+00  0.11999999989E+02  0.12000000000E+02  0.51109989000E-03 0.  1.
     -623   -1    0    0    0    0  0.00000000000E+00  0.00000000000E+00  0.42561509872E-11  0.25126700000E+02  0.25126700000E+02 0.  1.
      622    2    1    2    0    0  0.30072690112E-02  0.70415415850E-03  0.11946614085E+02  0.11947254272E+02  0.12364061373E+00 0.  0.
       11    1    1    2    0    0 -0.30383366152E-02  0.58825228662E-03  0.52652335523E-01  0.52745684082E-01  0.51109989000E-03 0.  1.
     -623    1    1    2    0    0  0.31067604048E-04 -0.12924064451E-02  0.73356851712E-03  0.25126700044E+02  0.25126700000E+02 0.  1.
     -611    1    3    3    0    0  0.36589991246E-01  0.49493119368E-01  0.69311557897E+01  0.69314362853E+01  0.10000000000E-01 0.  1.
      611    1    3    3    0    0 -0.33582722235E-01 -0.48788965209E-01  0.50154582954E+01  0.50158179867E+01  0.10000000000E-01 0. -1.
</event>
<event>
 7   0  0.6206631E-02  0.9118800E+02  0.7818608E-02  0.1180000E+00
       11   -1    0    0    0    0  0.00000000000E+00  0.00000000000E+00  0.11999999989E+02  0.12000000000E+02  0.51109989000E-03 0.  1.
     -623   -1    0    0    0    0  0.00000000000E+00  0.00000000000E+00  0.42561509872E-11  0.25126700000E+02  0.25126700000E+02 0.  1.
      622    2    1    2    0    0  0.12318420524E-02 -0.24541294161E-02  0.11987527823E+02  0.11987879056E+02  0.91724670869E-01 0.  0.
       11    1    1    2    0    0 -0.17765775309E-03  0.22527824576E-02  0.11897426330E-01  0.12120914467E-01  0.51109989000E-03 0.  1.
     -623    1    1    2    0    0 -0.10541842993E-02  0.20134695844E-03  0.57473980702E-03  0.25126700029E+02  0.25126700000E+02 0.  1.
     -611    1    3    3    0    0 -0.22940743281E-01 -0.25428909077E-01  0.21997460983E+01  0.22000354098E+01  0.10000000000E-01 0. -1.
      611    1    3    3    0    0  0.24172585333E-01  0.22974779660E-01  0.97877817247E+01  0.97878436463E+01  0.10000000000E-01 0.  1.
</event>
<event>
 7   0  0.6206631E-02  0.9118800E+02  0.7818608E-02  0.1180000E+00
       11   -1    0    0    0    0  0.00000000000E+00  0.00000000000E+00  0.11999999989E+02  0.12000000000E+02  0.51109989000E-03 0.  1.
     -623   -1    0    0    0    0  0.00000000000E+00  0.00000000000E+00  0.42561509872E-11  0.25126700000E+02  0.25126700000E+02 0. -1.
      622    2    1    2    0    0  0.17759075776E-02  0.56731592563E-02  0.11681047860E+02  0.11681329391E+02  0.80881960629E-01 0.  0.
       11    1    1    2    0    0  0.17156811762E-02 -0.13572361771E-02  0.31866207561E+00  0.31866999437E+00  0.51109989000E-03 0.  1.
     -623    1    1    2    0    0 -0.34915887537E-02 -0.43159230792E-02  0.29005366563E-03  0.25126700615E+02  0.25126700000E+02 0. -1.
     -611    1    3    3    0    0  0.24184499769E-01  0.29351207858E-01  0.86563491473E+01  0.86564384676E+01  0.10000000000E-01 0.  1.
      611    1    3    3    0    0 -0.22408592191E-01 -0.23678048601E-01  0.30246987125E+01  0.30248909231E+01  0.10000000000E-01 0. -1.
</event>
<event>
 7   0  0.6206631E-02  0.9118800E+02  0.7818608E-02  0.1180000E+00
       11   -1    0    0    0    0  0.00000000000E+00  0.00000000000E+00  0.11999999989E+02  0.12000000000E+02  0.51109989000E-03 0.  1.
     -623   -1    0    0    0    0  0.00000000000E+00  0.00000000000E+00  0.42561509872E-11  0.25126700000E+02  0.25126700000E+02 0. -1.
      622    2    1    2    0    0  0.56883412862E-03  0.31672142142E-02  0.11998638577E+02  0.11999323698E+02  0.12818409513E+00 0.  0.
       11    1    1    2    0    0 -0.25326258525E-03 -0.61418826712E-05  0.36288108998E-03  0.67608095789E-03  0.51109989000E-03 0.  1.
     -623    1    1    2    0    0 -0.31557154338E-03 -0.31610723315E-02  0.99853103136E-03  0.25126700221E+02  0.25126700000E+02 0. -1.
     -611    1    3    3    0    0 -0.97351326466E-02 -0.25564865514E-01  0.66284095737E+00  0.66348057238E+00  0.10000000000E-01 0. -1.
      611    1    3    3    0    0  0.10303966775E-01  0.28732079728E-01  0.11335797620E+02  0.11335843126E+02  0.10000000000E-01 0.  1.
</event>
<event>
 7   0  0.6206631E-02  0.9118800E+02  0.7818608E-02  0.1180000E+00
       11   -1    0    0    0    0  0.00000000000E+00  0.00000000000E+00  0.11999999989E+02  0.12000000000E+02  0.51109989000E-03 0. -1.
     -623   -1    0    0    0    0  0.00000000000E+00  0.00000000000E+00  0.42561509872E-11  0.25126700000E+02  0.25126700000E+02 0.  1.
      622    2    1    2    0    0 -0.64866674350E-02  0.15667442733E-02  0.11708426744E+02  0.11708781118E+02  0.90851096496E-01 0.  0.
       11    1    1    2    0    0  0.76679705990E-02 -0.50615253253E-02  0.29107318419E+00  0.29121860619E+00  0.51109989000E-03 0. -1.
     -623    1    1    2    0    0 -0.11813031640E-02  0.34947810520E-02  0.50006105597E-03  0.25126700276E+02  0.25126700000E+02 0.  1.
     -611    1    3    3    0    0 -0.29565154125E-01 -0.24845293249E-01  0.28487073696E+01  0.28489866732E+01  0.10000000000E-01 0. -1.
      611    1    3    3    0    0  0.23078486690E-01  0.26412037522E-01  0.88597193743E+01  0.88597944448E+01  0.10000000000E-01 0.  1.
</event>
<event>
 7   0  0.6206631E-02  0.9118800E+02  0.7818608E-02  0.1180000E+00
       11   -1    0    0    0    0  0.00000000000E+00  0.00000000000E+00  0.11999999989E+02  0.12000000000E+02  0.51109989000E-03 0.  1.
     -623   -1    0    0    0    0  0.00000000000E+00  0.00000000000E+00  0.42561509872E-11  0.25126700000E+02  0.25126700000E+02 0. -1.
      622    2    1    2    0    0  0.36723912765E-01  0.15615987888E-01  0.11178117752E+02  0.11178644231E+02  0.10088535980E+00 0.  0.
       11    1    1    2    0    0 -0.47780734743E-01  0.32933965568E-03  0.81995701287E+00  0.82134820341E+00  0.51109989000E-03 0.  1.
     -623    1    1    2    0    0  0.11056821978E-01 -0.15945327543E-01  0.19252243617E-02  0.25126707566E+02  0.25126700000E+02 0. -1.
     -611    1    3    3    0    0  0.28705351497E-01  0.16230621912E-01  0.11004103844E+02  0.11004157798E+02  0.10000000000E-01 0.  1.
      611    1    3    3    0    0  0.80185612679E-02 -0.61463402435E-03  0.17401390776E+00  0.17448643269E+00  0.10000000000E-01 0. -1.
</event>
<event>
 7   0  0.6206631E-02  0.9118800E+02  0.7818608E-02  0.1180000E+00
       11   -1    0    0    0    0  0.00000000000E+00  0.00000000000E+00  0.11999999989E+02  0.12000000000E+02  0.51109989000E-03 0. -1.
     -623   -1    0    0    0    0  0.00000000000E+00  0.00000000000E+00  0.42561509872E-11  0.25126700000E+02  0.25126700000E+02 0. -1.
      622    2    1    2    0    0 -0.29648273390E-02 -0.79921805475E-04  0.11951072755E+02  0.11951386053E+02  0.86485810036E-01 0.  0.
       11    1    1    2    0    0  0.29415977243E-02  0.69164479274E-03  0.48517235975E-01  0.48613936062E-01  0.51109989000E-03 0. -1.
     -623    1    1    2    0    0  0.23229614747E-04 -0.61172298727E-03  0.40999798380E-03  0.25126700011E+02  0.25126700000E+02 0. -1.
     -611    1    3    3    0    0 -0.55807833913E-02 -0.23257631611E-01  0.10810144921E+02  0.10810176006E+02  0.10000000000E-01 0. -1.
      611    1    3    3    0    0  0.26159560523E-02  0.23177709806E-01  0.11409278337E+01  0.11412100469E+01  0.10000000000E-01 0.  1.
</event>
<event>
 7   0  0.6206631E-02  0.9118800E+02  0.7818608E-02  0.1180000E+00
       11   -1    0    0    0    0  0.00000000000E+00  0.00000000000E+00  0.11999999989E+02  0.12000000000E+02  0.51109989000E-03 0.  1.
     -623   -1    0    0    0    0  0.00000000000E+00  0.00000000000E+00  0.42561509872E-11  0.25126700000E+02  0.25126700000E+02 0.  1.
      622    2    1    2    0    0  0.66699183052E-02 -0.44646710602E-02  0.11865874715E+02  0.11866241706E+02  0.92978842102E-01 0.  0.
       11    1    1    2    0    0 -0.61871506442E-02  0.54458695894E-02  0.13350308309E+00  0.13375826235E+00  0.51109989000E-03 0.  1.
     -623    1    1    2    0    0 -0.48276766106E-03 -0.98119852913E-03  0.62219142646E-03  0.25126700031E+02  0.25126700000E+02 0.  1.
     -611    1    3    3    0    0 -0.30618344073E-01 -0.17854579254E-02  0.94662282139E+01  0.94662831813E+01  0.10000000000E-01 0.  1.
      611    1    3    3    0    0  0.37288262378E-01 -0.26792131348E-02  0.23996465007E+01  0.23999585248E+01  0.10000000000E-01 0. -1.
</event>
<event>
 7   0  0.6206631E-02  0.9118800E+02  0.7818608E-02  0.1180000E+00
       11   -1    0    0    0    0  0.00000000000E+00  0.00000000000E+00  0.11999999989E+02  0.12000000000E+02  0.51109989000E-03 0.  1.
     -623   -1    0    0    0    0  0.00000000000E+00  0.00000000000E+00  0.42561509872E-11  0.25126700000E+02  0.25126700000E+02 0.  1.
      622    2    1    2    0    0 -0.39225187034E-02  0.30195442237E-01  0.11915823837E+02  0.11916054670E+02  0.67631480330E-01 0.  0.
       11    1    1    2    0    0  0.10457422205E-01 -0.39844255265E-01  0.73135312855E-01  0.83940202325E-01  0.51109989000E-03 0.  1.
     -623    1    1    2    0    0 -0.65349035012E-02  0.96488130280E-02  0.11040839023E-01  0.25126705128E+02  0.25126700000E+02 0.  1.
     -611    1    3    3    0    0  0.67110647638E-02 -0.46903075017E-02  0.49641277879E+00  0.49658099472E+00  0.10000000000E-01 0. -1.
      611    1    3    3    0    0 -0.10633583467E-01  0.34885749739E-01  0.11419411058E+02  0.11419473675E+02  0.10000000000E-01 0.  1.
</event>
<event>
 6   0  0.6206631E-02  0.9118800E+02  0.7818608E-02  0.1180000E+00
       11   -1    0    0    0    0  0.00000000000E+00  0.00000000000E+00  0.11999999989E+02  0.12000000000E+02  0.51109989000E-03 0. -1.
     -623   -1    0    0    0    0  0.00000000000E+00  0.00000000000E+00  0.42561509872E-11  0.25126700000E+02  0.25126700000E+02 0. -1.
       11    1    1    2    0    0  0.50827582514E-02  0.49207655150E-02  0.51186599053E-01  0.51675695549E-01  0.51109989000E-03 0. -1.
     -623    1    1    2    0    0 -0.14820625876E-01 -0.15645584265E-03  0.34311326795E-02  0.25126704606E+02  0.25126700000E+02 0. -1.
     -611    1    1    2    0    0 -0.24845707682E-01 -0.20385399289E-01  0.11680286287E+02  0.11680334782E+02  0.10000000000E-01 0. -1.
      611    1    1    2    0    0  0.34583575307E-01  0.15621089617E-01  0.26509596993E+00  0.26798491635E+00  0.10000000000E-01 0. -1.
</event>
<event>
 7   0  0.6206631E-02  0.9118800E+02  0.7818608E-02  0.1180000E+00
       11   -1    0    0    0    0  0.00000000000E+00  0.00000000000E+00  0.11999999989E+02  0.12000000000E+02  0.51109989000E-03 0.  1.
     -623   -1    0    0    0    0  0.00000000000E+00  0.00000000000E+00  0.42561509872E-11  0.25126700000E+02  0.25126700000E+02 0. -1.
      622    2    1    2    0    0 -0.10630345116E-01  0.24544179021E-01  0.93185445288E+01  0.93191240363E+01  0.10042532816E+00 0.  0.
       11    1    1    2    0    0  0.99855630962E-02 -0.24852762404E-01  0.26807420972E+01  0.26808759434E+01  0.51109989000E-03 0.  1.
     -623    1    1    2    0    0  0.64478201983E-03  0.30858338357E-03  0.71336310324E-03  0.25126700020E+02  0.25126700000E+02 0. -1.
     -611    1    3    3    0    0 -0.44714288625E-01  0.26234459201E-01  0.28972389497E+01  0.28977199910E+01  0.10000000000E-01 0. -1.
      611    1    3    3    0    0  0.34083943509E-01 -0.16902801801E-02  0.64213055791E+01  0.64214040453E+01  0.10000000000E-01 0.  1.
</event>
<event>
 7   0  0.6206631E-02  0.9118800E+02  0.7818608E-02  0.1180000E+00
       11   -1    0    0    0    0  0.00000000000E+00  0.00000000000E+00  0.11999999989E+02  0.12000000000E+02  0.51109989000E-03 0. -1.
     -623   -1    0    0    0    0  0.00000000000E+00  0.00000000000E+00  0.42561509872E-11  0.25126700000E+02  0.25126700000E+02 0. -1.
      622    2    1    2    0    0  0.91128583566E-01  0.73132345602E-01  0.77498063191E+01  0.77512615842E+01  0.94368444965E-01 0.  0.
       11    1    1    2    0    0 -0.85269955812E-01 -0.79160383714E-01  0.42471433943E+01  0.42487368246E+01  0.51109989000E-03 0. -1.
     -623    1    1    2    0    0 -0.58586277538E-02  0.60280381117E-02  0.30502756858E-02  0.25126701591E+02  0.25126700000E+02 0. -1.
     -611    1    3    3    0    0  0.65998195132E-01  0.30780170193E-01  0.65387268256E+01  0.65391399802E+01  0.10000000000E-01 0. -1.
      611    1    3    3    0    0  0.25130388433E-01  0.42352175409E-01  0.12110794935E+01  0.12121216040E+01  0.10000000000E-01 0.  1.
</event>
<event>
 7   0  0.6206631E-02  0.9118800E+02  0.7818608E-02  0.1180000E+00
       11   -1    0    0    0    0  0.00000000000E+00  0.00000000000E+00  0.11999999989E+02  0.12000000000E+02  0.51109989000E-03 0.  1.
     -623   -1    0    0    0    0  0.00000000000E+00  0.00000000000E+00  0.42561509872E-11  0.25126700000E+02  0.25126700000E+02 0.  1.
      622    2    1    2    0    0 -0.31980581738E-01 -0.60967298525E-01  0.80022016475E+01  0.80046294028E+01  0.18471843283E+00 0.  0.
       11    1    1    2    0    0  0.19882911537E-01  0.64617735353E-01  0.39947951564E+01  0.39953672403E+01  0.51109989000E-03 0.  1.
     -623    1    1    2    0    0  0.12097670202E-01 -0.36504368279E-02  0.30031852321E-02  0.25126703357E+02  0.25126700000E+02 0.  1.
     -611    1    3    3    0    0 -0.16885748218E-02 -0.72958569593E-01  0.11567404451E+01  0.11590833713E+01  0.10000000000E-01 0. -1.
      611    1    3    3    0    0 -0.30292006917E-01  0.11991271068E-01  0.68454612024E+01  0.68455460315E+01  0.10000000000E-01 0.  1.
</event>
<event>
 7   0  0.6206631E-02  0.9118800E+02  0.7818608E-02  0.1180000E+00
       11   -1    0    0    0    0  0.00000000000E+00  0.00000000000E+00  0.11999999989E+02  0.12000000000E+02  0.51109989000E-03 0.  1.
     -623   -1    0    0    0    0  0.00000000000E+00  0.00000000000E+00  0.42561509872E-11  0.25126700000E+02  0.25126700000E+02 0. -1.
      622    2    1    2    0    0 -0.38875053194E-02  0.31127029148E-02  0.11935084447E+02  0.11935565851E+02  0.10708233878E+00 0.  0.
       11    1    1    2    0    0  0.32424648947E-02 -0.41175093938E-02  0.64218579639E-01  0.64434110968E-01  0.51109989000E-03 0.  1.
     -623    1    1    2    0    0  0.64504042477E-03  0.10048064789E-02  0.69696258415E-03  0.25126700038E+02  0.25126700000E+02 0. -1.
     -611    1    3    3    0    0  0.30721073809E-01 -0.78900858273E-02  0.10276209930E+02  0.10276263745E+02  0.10000000000E-01 0.  1.
      611    1    3    3    0    0 -0.34608579129E-01  0.11002788742E-01  0.16588745172E+01  0.16593021060E+01  0.10000000000E-01 0. -1.
</event>
<event>
 7   0  0.6206631E-02  0.9118800E+02  0.7818608E-02  0.1180000E+00
       11   -1    0    0    0    0  0.00000000000E+00  0.00000000000E+00  0.11999999989E+02  0.12000000000E+02  0.51109989000E-03 0. -1.
     -623   -1    0    0    0    0  0.00000000000E+00  0.00000000000E+00  0.42561509872E-11  0.25126700000E+02  0.25126700000E+02 0. -1.
      622    2    1    2    0    0 -0.19108928999E-02 -0.90352148660E-03  0.11977990512E+02  0.11978438285E+02  0.10354986786E+00 0.  0.
       11    1    1    2    0    0  0.26678326591E-02  0.20456236670E-02  0.21291837841E-01  0.21561667120E-01  0.51109989000E-03 0. -1.
     -623    1    1    2    0    0 -0.75693975914E-03 -0.11421021804E-02  0.71763904772E-03  0.25126700048E+02  0.25126700000E+02 0. -1.
     -611    1    3    3    0    0  0.18672798892E-01  0.44183867695E-01  0.42518290293E+01  0.42521113557E+01  0.10000000000E-01 0.  1.
      611    1    3    3    0    0 -0.20583691792E-01 -0.45087389182E-01  0.77261614830E+01  0.77263269295E+01  0.10000000000E-01 0. -1.
</event>
<event>
 7   0  0.6206631E-02  0.9118800E+02  0.7818608E-02  0.1180000E+00
       11   -1    0    0    0    0  0.00000000000E+00  0.00000000000E+00  0.11999999989E+02  0.12000000000E+02  0.51109989000E-03 0.  1.
     -623   -1    0    0    0    0  0.00000000000E+00  0.00000000000E+00  0.42561509872E-11  0.25126700000E+02  0.25126700000E+02 0. -1.
      622    2    1    2    0    0  0.50797493814E-02  0.45587384953E-01  0.89293983320E+01  0.89302594656E+01  0.11521952360E+00 0.  0.
       11    1    1    2    0    0  0.78501815923E-05 -0.31670080526E-01  0.30695727289E+01  0.30697361439E+01  0.51109989000E-03 0.  1.
     -623    1    1    2    0    0 -0.50875995630E-02 -0.13917304427E-01  0.10289282045E-02  0.25126704390E+02  0.25126700000E+02 0. -1.
     -611    1    3    3    0    0  0.56994102080E-01  0.32152252127E-01  0.58867752769E+01  0.58871474634E+01  0.10000000000E-01 0. -1.
      611    1    3    3    0    0 -0.51914352698E-01  0.13435132825E-01  0.30426230550E+01  0.30431120022E+01  0.10000000000E-01 0.  1.
</event>
<event>
 7   0  0.6206631E-02  0.9118800E+02  0.7818608E-02  0.1180000E+00
       11   -1    0    0    0    0  0.00000000000E+00  0.00000000000E+00  0.11999999989E+02  0.12000000000E+02  0.51109989000E-03 0. -1.
     -623   -1    0    0    0    0  0.00000000000E+00  0.00000000000E+00  0.42561509872E-11  0.25126700000E+02  0.25126700000E+02 0.  1.
      622    2    1    2    0    0 -0.53741122811E-01  0.50215922103E-01  0.41594319204E+01  0.41608426375E+01  0.79547509698E-01 0.  0.
       11    1    1    2    0    0  0.46610101123E-01 -0.51529098169E-01  0.78388483094E+01  0.78391562574E+01  0.51109989000E-03 0. -1.
     -623    1    1    2    0    0  0.71310216878E-02  0.13131760658E-02  0.17197593025E-02  0.25126701105E+02  0.25126700000E+02 0.  1.
     -611    1    3    3    0    0 -0.17456704444E-01  0.60773541921E-01  0.19134698294E+01  0.19145404013E+01  0.10000000000E-01 0.  1.
      611    1    3    3    0    0 -0.36284418367E-01 -0.10557619818E-01  0.22459620909E+01  0.22463022362E+01  0.10000000000E-01 0. -1.
</event>
<event>
 7   0  0.6206631E-02  0.9118800E+02  0.7818608E-02  0.1180000E+00
       11   -1    0    0    0    0  0.00000000000E+00  0.00000000000E+00  0.11999999989E+02  0.12000000000E+02  0.51109989000E-03 0. -1.
     -623   -1    0    0    0    0  0.00000000000E+00  0.00000000000E+00  0.42561509872E-11  0.25126700000E+02  0.25126700000E+02 0. -1.
      622    2    1    2    0    0 -0.38571951545E-02 -0.14025523537E-01  0.11983382237E+02  0.11983846413E+02  0.10446728469E+00 0.  0.
       11    1    1    2    0    0  0.58001898733E-02  0.10576496702E-01  0.10730345256E-01  0.16152585474E-01  0.51109989000E-03 0. -1.
     -623    1    1    2    0    0 -0.19429947188E-02  0.34490268352E-02  0.58874066836E-02  0.25126701002E+02  0.25126700000E+02 0. -1.
     -611    1    3    3    0    0  0.13951202101E-01  0.25582336270E-01  0.12774414512E+01  0.12778128788E+01  0.10000000000E-01 0.  1.
      611    1    3    3    0    0 -0.17808397256E-01 -0.39607859807E-01  0.10705940786E+02  0.10706033534E+02  0.10000000000E-01 0. -1.
</event>
<event>
 7   0  0.6206631E-02  0.9118800E+02  0.7818608E-02  0.1180000E+00
       11   -1    0    0    0    0  0.00000000000E+00  0.00000000000E+00  0.11999999989E+02  0.12000000000E+02  0.51109989000E-03 0.  1.
     -623   -1    0    0    0    0  0.00000000000E+00  0.00000000000E+00  0.42561509872E-11  0.25126700000E+02  0.25126700000E+02 0. -1.
      622    2    1    2    0    0  0.54998312258E-02  0.73653738218E-02  0.11980015512E+02  0.11980538009E+02  0.11151150605E+00 0.  0.
       11    1    1    2    0    0 -0.62569216595E-02 -0.28825817185E-02  0.18194257921E-01  0.19461515626E-01  0.51109989000E-03 0.  1.
     -623    1    1    2    0    0  0.75709043369E-03 -0.44827921033E-02  0.17902186998E-02  0.25126700475E+02  0.25126700000E+02 0. -1.
     -611    1    3    3    0    0  0.50209430375E-01 -0.22780628915E-01  0.52495630206E+01  0.52498620792E+01  0.10000000000E-01 0.  1.
      611    1    3    3    0    0 -0.44709599149E-01  0.30146002737E-01  0.67304524919E+01  0.67306759300E+01  0.10000000000E-01 0. -1.
</event>
<event>
 7   0  0.6206631E-02  0.9118800E+02  0.7818608E-02  0.1180000E+00
       11   -1    0    0    0    0  0.00000000000E+00  0.00000000000E+00  0.11999999989E+02  0.12000000000E+02  0.51109989000E-03 0.  1.
     -623   -1    0    0    0    0  0.00000000000E+00  0.00000000000E+00  0.42561509872E-11  0.25126700000E+02  0.25126700000E+02 0.  1.
      622    2    1    2    0    0 -0.16076903444E-01  0.95338831478E-02  0.11300203515E+02  0.11300732658E+02  0.10774866553E+00 0.  0.
       11    1    1    2    0    0  0.12293653161E-01 -0.10025345788E-01  0.69908689981E+00  0.69926704211E+00  0.51109989000E-03 0.  1.
     -623    1    1    2    0    0  0.37832502834E-02  0.49146264047E-03  0.70957447804E-03  0.25126700300E+02  0.25126700000E+02 0.  1.
     -611    1    3    3    0    0 -0.14261681784E-01  0.84630694051E-02  0.11198545382E+02  0.11198562126E+02  0.10000000000E-01 0.  1.
      611    1    3    3    0    0 -0.18152216601E-02  0.10708137427E-02  0.10165813241E+00  0.10217053175E+00  0.10000000000E-01 0.  1.
</event>
<event>
 7   0  0.6206631E-02  0.9118800E+02  0.7818608E-02  0.1180000E+00
       11   -1    0    0    0    0  0.00000000000E+00  0.00000000000E+00  0.11999999989E+02  0.12000000000E+02  0.51109989000E-03 0. -1.
     -623   -1    0    0    0    0  0.00000000000E+00  0.00000000000E+00  0.42561509872E-11  0.25126700000E+02  0.25126700000E+02 0.  1.
      622    2    1    2    0    0 -0.87910090542E-02  0.21720555239E-02  0.10473748043E+02  0.10474004790E+02  0.72775482835E-01 0.  0.
       11    1    1    2    0    0  0.75016704134E-02 -0.17009033238E-02  0.15259756984E+01  0.15259951709E+01  0.51109989000E-03 0. -1.
     -623    1    1    2    0    0  0.12893386409E-02 -0.47115220010E-03  0.27624748574E-03  0.25126700039E+02  0.25126700000E+02 0.  1.
     -611    1    3    3    0    0 -0.18954902029E-01  0.19852439104E-02  0.94108857486E+00  0.94133465634E+00  0.10000000000E-01 0.  1.
      611    1    3    3    0    0  0.10163892975E-01  0.18681161343E-03  0.95326594683E+01  0.95326701338E+01  0.10000000000E-01 0. -1.
</event>
<event>
 7   0  0.6206631E-02  0.9118800E+02  0.7818608E-02  0.1180000E+00
       11   -1    0    0    0    0  0.00000000000E+00  0.00000000000E+00  0.11999999989E+02  0.12000000000E+02  0.51109989000E-03 0.  1.
     -623   -1    0    0    0    0  0.00000000000E+00  0.00000000000E+00  0.42561509872E-11  0.25126700000E+02  0.25126700000E+02 0. -1.
      622    2    1    2    0    0 -0.50196080089E-01 -0.58118554808E-01  0.10210020224E+02  0.10210371683E+02  0.35770527549E-01 0.  0.
       11    1    1    2    0    0  0.51740141890E-01  0.83406791165E-02  0.17888113080E+01  0.17895789354E+01  0.51109989000E-03 0.  1.
     -623    1    1    2    0    0 -0.15440618007E-02  0.49777875692E-01  0.11684575788E-02  0.25126749381E+02  0.25126700000E+02 0. -1.
     -611    1    3    3    0    0 -0.32922271403E-02 -0.17217877583E-02  0.12174920547E+01  0.12175387906E+01  0.10000000000E-01 0.  1.
      611    1    3    3    0    0 -0.46903852949E-01 -0.56396767050E-01  0.89925281689E+01  0.89928328926E+01  0.10000000000E-01 0.  1.
</event>
<event>
 7   0  0.6206631E-02  0.9118800E+02  0.7818608E-02  0.1180000E+00
       11   -1    0    0    0    0  0.00000000000E+00  0.00000000000E+00  0.11999999989E+02  0.12000000000E+02  0.51109989000E-03 0. -1.
     -623   -1    0    0    0    0  0.00000000000E+00  0.00000000000E+00  0.42561509872E-11  0.25126700000E+02  0.25126700000E+02 0.  1.
      622    2    1    2    0    0 -0.12619221989E-01 -0.22975591144E-02  0.11452113469E+02  0.11452610858E+02  0.10596234618E+00 0.  0.
       11    1    1    2    0    0 -0.17021816805E-02  0.35035347862E-03  0.54738198312E+00  0.54738498046E+00  0.51109989000E-03 0. -1.
     -623    1    1    2    0    0  0.14321403670E-01  0.19472056358E-02  0.50453666639E-03  0.25126704162E+02  0.25126700000E+02 0.  1.
     -611    1    3    3    0    0 -0.11309683771E-01  0.29896166173E-01  0.10165465074E+02  0.10165520245E+02  0.10000000000E-01 0. -1.
      611    1    3    3    0    0 -0.13095382179E-02 -0.32193725287E-01  0.12866483953E+01  0.12870906122E+01  0.10000000000E-01 0.  1.
</event>
<event>
 7   0  0.6206631E-02  0.9118800E+02  0.7818608E-02  0.1180000E+00
       11   -1    0    0    0    0  0.00000000000E+00  0.00000000000E+00  0.11999999989E+02  0.12000000000E+02  0.51109989000E-03 0.  1.
     -623   -1    0    0    0    0  0.00000000000E+00  0.00000000000E+00  0.42561509872E-11  0.25126700000E+02  0.25126700000E+02 0. -1.
      622    2    1    2    0    0 -0.28123304728E-02  0.41564986528E-02  0.11980813049E+02  0.11981139070E+02  0.88243416980E-01 0.  0.
       11    1    1    2    0    0 -0.46156338896E-02 -0.64098894148E-02  0.17118243743E-01  0.18859646087E-01  0.51109989000E-03 0.  1.
     -623    1    1    2    0    0  0.74279643624E-02  0.22533907620E-02  0.20686960405E-02  0.25126701284E+02  0.25126700000E+02 0. -1.
     -611    1    3    3    0    0  0.12442159290E-01  0.15004609869E-01  0.11241846097E+02  0.11241867444E+02  0.10000000000E-01 0.  1.
      611    1    3    3    0    0 -0.15254489763E-01 -0.10848111216E-01  0.73896695207E+00  0.73927162614E+00  0.10000000000E-01 0. -1.
</event>
<event>
 7   0  0.6206631E-02  0.9118800E+02  0.7818608E-02  0.1180000E+00
       11   -1    0    0    0    0  0.00000000000E+00  0.00000000000E+00  0.11999999989E+02  0.12000000000E+02  0.51109989000E-03 0.  1.
     -623   -1    0    0    0    0  0.00000000000E+00  0.00000000000E+00  0.42561509872E-11  0.25126700000E+02  0.25126700000E+02 0.  1.
      622    2    1    2    0    0 -0.11643713683E-01 -0.16642638310E-01  0.11558634072E+02  0.11559191529E+02  0.11168994627E+00 0.  0.
       11    1    1    2    0    0  0.93907870063E-02  0.17906888340E-01  0.44034403388E+00  0.44080831767E+00  0.51109989000E-03 0.  1.
     -623    1    1    2    0    0  0.22529266766E-02 -0.12642500302E-02  0.10218836646E-02  0.25126700154E+02  0.25126700000E+02 0.  1.
     -611    1    3    3    0    0 -0.48848753380E-01 -0.76588834129E-02  0.97247237740E+01  0.97248546180E+01  0.10000000000E-01 0.  1.
      611    1    3    3    0    0  0.37205039697E-01 -0.89837548974E-02  0.18339102975E+01  0.18343369108E+01  0.10000000000E-01 0. -1.
</event>
<event>
 7   0  0.6206631E-02  0.9118800E+02  0.7818608E-02  0.1180000E+00
       11   -1    0    0    0    0  0.00000000000E+00  0.00000000000E+00  0.11999999989E+02  0.12000000000E+02  0.51109989000E-03 0. -1.
     -623   -1    0    0    0    0  0.00000000000E+00  0.00000000000E+00  0.42561509872E-11  0.25126700000E+02  0.25126700000E+02 0. -1.
      622    2    1    2    0    0 -0.27782925762E-02 -0.11914688108E-01  0.55926545837E+01  0.55928155453E+01  0.40629447936E-01 0.  0.
       11    1    1    2    0    0  0.16853272506E-02  0.10361659530E-01  0.64071757620E+01  0.64071843824E+01  0.51109989000E-03 0. -1.
     -623    1    1    2    0    0  0.10929653256E-02  0.15530285778E-02  0.16964346928E-03  0.25126700072E+02  0.25126700000E+02 0. -1.
     -611    1    3    3    0    0 -0.38975741390E-02 -0.18665347900E-01  0.16271294335E+01  0.16272718825E+01  0.10000000000E-01 0. -1.
      611    1    3    3    0    0  0.11192815628E-02  0.67506597917E-02  0.39655251502E+01  0.39655436628E+01  0.10000000000E-01 0. -1.
</event>
<event>
 7   0  0.6206631E-02  0.9118800E+02  0.7818608E-02  0.1180000E+00
       11   -1    0    0    0    0  0.00000000000E+00  0.00000000000E+00  0.11999999989E+02  0.12000000000E+02  0.51109989000E-03 0. -1.
     -623   -1    0    0    0    0  0.00000000000E+00  0.00000000000E+00  0.42561509872E-11  0.25126700000E+02  0.25126700000E+02 0. -1.
      622    2    1    2    0    0 -0.16088218989E-01  0.14095736859E-01  0.10050542486E+02  0.10050632552E+02  0.36782101090E-01 0.  0.
       11    1    1    2    0    0  0.17134975199E-01 -0.12275908695E-01  0.19492533276E+01  0.19493673593E+01  0.51109989000E-03 0. -1.
     -623    1    1    2    0    0 -0.10467562109E-02 -0.18198281642E-02  0.20417595577E-03  0.25126700089E+02  0.25126700000E+02 0. -1.
     -611    1    3    3    0    0 -0.12359436020E-01  0.20795729368E-01  0.84467758812E+01  0.84468164421E+01  0.10000000000E-01 0. -1.
      611    1    3    3    0    0 -0.37287829688E-02 -0.66999925088E-02  0.16037666044E+01  0.16038161102E+01  0.10000000000E-01 0. -1.
</event>
<event>
 7   0  0.6206631E-02  0.9118800E+02  0.7818608E-02  0.1180000E+00
       11   -1    0    0    0    0  0.00000000000E+00  0.00000000000E+00  0.11999999989E+02  0.12000000000E+02  0.51109989000E-03 0.  1.
     -623   -1    0    0    0    0  0.00000000000E+00  0.00000000000E+00  0.42561509872E-11  0.25126700000E+02  0.25126700000E+02 0.  1.
      622    2    1    2    0    0 -0.10637051271E-02 -0.31614365891E-03  0.11998803659E+02  0.11999334538E+02  0.11286664463E+00 0.  0.
       11    1    1    2    0    0 -0.32865829449E-03 -0.15491182623E-03  0.22253200288E-03  0.66540030518E-03  0.51109989000E-03 0.  1.
     -623    1    1    2    0    0  0.13923634216E-02  0.47105548515E-03  0.97379842240E-03  0.25126700062E+02  0.25126700000E+02 0.  1.
     -611    1    3    3    0    0  0.18118672603E-01  0.50839813835E-01  0.72061880456E+01  0.72063970971E+01  0.10000000000E-01 0.  1.
      611    1    3    3    0    0 -0.19182377730E-01 -0.51155957494E-01  0.47926156131E+01  0.47929374408E+01  0.10000000000E-01 0. -1.
</event>
<event>
 7   0  0.6206631E-02  0.9118800E+02  0.7818608E-02  0.1180000E+00
       11   -1    0    0    0    0  0.00000000000E+00  0.00000000000E+00  0.11999999989E+02  0.12000000000E+02  0.51109989000E-03 0. -1.
     -623   -1    0    0    0    0  0.00000000000E+00  0.00000000000E+00  0.42561509872E-11  0.25126700000E+02  0.25126700000E+02 0. -1.
      622    2    1    2    0    0  0.34916129445E-02 -0.47880761842E-02  0.11988517252E+02  0.11989084348E+02  0.11645810797E+00 0.  0.
       11    1    1    2    0    0  0.94153776070E-02  0.28547489674E-02  0.46901267106E-02  0.10911344502E-01  0.51109989000E-03 0. -1.
     -623    1    1    2    0    0 -0.12906990552E-01  0.19333272168E-02  0.67926106845E-02  0.25126704308E+02  0.25126700000E+02 0. -1.
     -611    1    3    3    0    0  0.23232455333E-01 -0.17699768459E-01  0.11363819837E+02  0.11363861769E+02  0.10000000000E-01 0. -1.
      611    1    3    3    0    0 -0.19740842389E-01  0.12911692275E-01  0.62469741489E+00  0.62522257863E+00  0.10000000000E-01 0. -1.
</event>
<event>
 7   0  0.6206631E-02  0.9118800E+02  0.7818608E-02  0.1180000E+00
       11   -1    0    0    0    0  0.00000000000E+00  0.00000000000E+00  0.11999999989E+02  0.12000000000E+02  0.51109989000E-03 0.  1.
     -623   -1    0    0    0    0  0.00000000000E+00  0.00000000000E+00  0.42561509872E-11  0.25126700000E+02  0.25126700000E+02 0. -1.
      622    2    1    2    0    0 -0.20433624779E-01  0.39961721588E-01  0.11523409093E+02  0.11523984852E+02  0.10609082033E+00 0.  0.
       11    1    1    2    0    0  0.23271684974E-01 -0.42403047665E-01  0.47355055691E+00  0.47601468564E+00  0.51109989000E-03 0.  1.
     -623    1    1    2    0    0 -0.28380601948E-02  0.24413260772E-02  0.30403392326E-02  0.25126700463E+02  0.25126700000E+02 0. -1.
     -611    1    3    3    0    0 -0.40813925936E-01 -0.23141513945E-01  0.51074965872E+01  0.51077218693E+01  0.10000000000E-01 0. -1.
      611    1    3    3    0    0  0.20380301157E-01  0.63103235533E-01  0.64159125058E+01  0.64162629822E+01  0.10000000000E-01 0.  1.
</event>
<event>
 7   0  0.6206631E-02  0.9118800E+02  0.7818608E-02  0.1180000E+00
       11   -1    0    0    0    0  0.00000000000E+00  0.00000000000E+00  0.11999999989E+02  0.12000000000E+02  0.51109989000E-03 0.  1.
     -623   -1    0    0    0    0  0.00000000000E+00  0.00000000000E+00  0.42561509872E-11  0.25126700000E+02  0.25126700000E+02 0.  1.
      622    2    1    2    0    0 -0.33953009527E-01  0.19551892366E-01  0.11148967624E+02  0.11149469433E+02  0.98257180601E-01 0.  0.
       11    1    1    2    0    0  0.18483517803E-01 -0.68708068681E-01  0.84749585922E+00  0.85047747280E+00  0.51109989000E-03 0.  1.
     -623    1    1    2    0    0  0.15469491724E-01  0.49156176315E-01  0.35365054269E-02  0.25126753094E+02  0.25126700000E+02 0.  1.
     -611    1    3    3    0    0  0.39571918689E-02  0.35765986807E-01  0.17159379508E+01  0.17163443466E+01  0.10000000000E-01 0. -1.
      611    1    3    3    0    0 -0.37910201396E-01 -0.16214094441E-01  0.94330296736E+01  0.94331250868E+01  0.10000000000E-01 0.  1.
</event>
<event>
 7   0  0.6206631E-02  0.9118800E+02  0.7818608E-02  0.1180000E+00
       11   -1    0    0    0    0  0.00000000000E+00  0.00000000000E+00  0.11999999989E+02  0.12000000000E+02  0.51109989000E-03 0.  1.
     -623   -1    0    0    0    0  0.00000000000E+00  0.00000000000E+00  0.42561509872E-11  0.25126700000E+02  0.25126700000E+02 0. -1.
      622    2    1    2    0    0  0.32659689195E-02 -0.11285881877E-01  0.11705824583E+02  0.11706343180E+02  0.10956032255E+00 0.  0.
       11    1    1    2    0    0 -0.21079101649E-02  0.47712271748E-02  0.29360916725E+00  0.29365594189E+00  0.51109989000E-03 0.  1.
     -623    1    1    2    0    0 -0.11580587545E-02  0.65146547019E-02  0.56623930611E-03  0.25126700878E+02  0.25126700000E+02 0. -1.
     -611    1    3    3    0    0 -0.13510077970E-01 -0.17039448411E-01  0.57263715760E+00  0.57313713828E+00  0.10000000000E-01 0. -1.
      611    1    3    3    0    0  0.16776046890E-01  0.57535665343E-02  0.11133187425E+02  0.11133206042E+02  0.10000000000E-01 0.  1.
</event>
<event>
 7   0  0.6206631E-02  0.9118800E+02  0.7818608E-02  0.1180000E+00
       11   -1    0    0    0    0  0.00000000000E+00  0.00000000000E+00  0.11999999989E+02  0.12000000000E+02  0.51109989000E-03 0.  1.
     -623   -1    0    0    0    0  0.00000000000E+00  0.00000000000E+00  0.42561509872E-11  0.25126700000E+02  0.25126700000E+02 0. -1.
      622    2    1    2    0    0 -0.26565388465E-01  0.10132995662E-01  0.11069627745E+02  0.11070015557E+02  0.88190875647E-01 0.  0.
       11    1    1    2    0    0  0.29620297439E-01  0.23137000262E-02  0.92950631003E+00  0.92998115939E+00  0.51109989000E-03 0.  1.
     -623    1    1    2    0    0 -0.30549089735E-02 -0.12446695688E-01  0.86593429057E-03  0.25126703283E+02  0.25126700000E+02 0. -1.
     -611    1    3    3    0    0  0.20853899256E-01  0.93946230097E-02  0.76876459599E+01  0.76876864887E+01  0.10000000000E-01 0.  1.
      611    1    3    3    0    0 -0.47419287722E-01  0.73837265245E-03  0.33819817849E+01  0.33823290685E+01  0.10000000000E-01 0. -1.
</event>
<event>
 7   0  0.6206631E-02  0.9118800E+02  0.7818608E-02  0.1180000E+00
       11   -1    0    0    0    0  0.00000000000E+00  0.00000000000E+00  0.11999999989E+02  0.12000000000E+02  0.51109989000E-03 0. -1.
     -623   -1    0    0    0    0  0.00000000000E+00  0.00000000000E+00  0.42561509872E-11  0.25126700000E+02  0.25126700000E+02 0. -1.
      622    2    1    2    0    0 -0.93050276545E-01  0.79620242876E-01  0.11332724763E+02  0.11333837244E+02  0.10108595353E+00 0.  0.
       11    1    1    2    0    0  0.83452111625E-01 -0.56301165370E-01  0.65849797172E+00  0.66614856912E+00  0.51109989000E-03 0. -1.
     -623    1    1    2    0    0  0.95981649202E-02 -0.23319077506E-01  0.87772539492E-02  0.25126714187E+02  0.25126700000E+02 0. -1.
     -611    1    3    3    0    0 -0.30307270856E-01  0.42065581085E-01  0.16783558661E+01  0.16791862485E+01  0.10000000000E-01 0.  1.
      611    1    3    3    0    0 -0.62743005689E-01  0.37554661791E-01  0.96543688973E+01  0.96546509954E+01  0.10000000000E-01 0. -1.
</event>
<event>
 7   0  0.6206631E-02  0.9118800E+02  0.7818608E-02  0.1180000E+00
       11   -1    0    0    0    0  0.00000000000E+00  0.00000000000E+00  0.11999999989E+02  0.12000000000E+02  0.51109989000E-03 0. -1.
     -623   -1    0    0    0    0  0.00000000000E+00  0.00000000000E+00  0.42561509872E-11  0.25126700000E+02  0.25126700000E+02 0. -1.
      622    2    1    2    0    0 -0.23383331830E-01  0.40787068648E-01  0.11852207323E+02  0.11852475423E+02  0.64380548675E-01 0.  0.
       11    1    1    2    0    0  0.12387818590E-01 -0.35264842762E-01  0.14270645319E+00  0.14752104999E+00  0.51109989000E-03 0. -1.
     -623    1    1    2    0    0  0.10995513240E-01 -0.55222258859E-02  0.50862131380E-02  0.25126703527E+02  0.25126700000E+02 0. -1.
     -611    1    3    3    0    0 -0.56004967171E-02  0.14969413494E-01  0.96845906775E+01  0.96846090288E+01  0.10000000000E-01 0. -1.
      611    1    3    3    0    0 -0.17782835113E-01  0.25817655154E-01  0.21676166453E+01  0.21678663938E+01  0.10000000000E-01 0.  1.
</event>
<event>
 7   0  0.6206631E-02  0.9118800E+02  0.7818608E-02  0.1180000E+00
       11   -1    0    0    0    0  0.00000000000E+00  0.00000000000E+00  0.11999999989E+02  0.12000000000E+02  0.51109989000E-03 0.  1.
     -623   -1    0    0    0    0  0.00000000000E+00  0.00000000000E+00  0.42561509872E-11  0.25126700000E+02  0.25126700000E+02 0. -1.
      622    2    1    2    0    0 -0.40553554810E-02 -0.25069613661E-03  0.11812005050E+02  0.11812225144E+02  0.71993429931E-01 0.  0.
       11    1    1    2    0    0  0.41222833253E-02 -0.30342197713E-03  0.18772865305E+00  0.18777484838E+00  0.51109989000E-03 0.  1.
     -623    1    1    2    0    0 -0.66927844338E-04  0.55411811373E-03  0.26628654145E-03  0.25126700008E+02  0.25126700000E+02 0. -1.
     -611    1    3    3    0    0  0.13837603845E-01 -0.19351156866E-01  0.96992492371E+01  0.96992835668E+01  0.10000000000E-01 0.  1.
      611    1    3    3    0    0 -0.17892959326E-01  0.19100460729E-01  0.21127558124E+01  0.21129415772E+01  0.10000000000E-01 0. -1.
</event>
<event>
 7   0  0.6206631E-02  0.9118800E+02  0.7818608E-02  0.1180000E+00
       11   -1    0    0    0    0  0.00000000000E+00  0.00000000000E+00  0.11999999989E+02  0.12000000000E+02  0.51109989000E-03 0. -1.
     -623   -1    0    0    0    0  0.00000000000E+00  0.00000000000E+00  0.42561509872E-11  0.25126700000E+02  0.25126700000E+02 0. -1.
      622    2    1    2    0    0  0.11647129900E-01  0.19945168453E-01  0.10699020375E+02  0.10699343969E+02  0.79943236714E-01 0.  0.
       11    1    1    2    0    0 -0.26624076215E-01 -0.17410825290E-01  0.13002622434E+01  0.13006514295E+01  0.51109989000E-03 0. -1.
     -623    1    1    2    0    0  0.14976946315E-01 -0.25343431633E-02  0.71737103960E-03  0.25126704602E+02  0.25126700000E+02 0. -1.
     -611    1    3    3    0    0 -0.44320840434E-02  0.21378642671E-01  0.10088011706E+02  0.10088040289E+02  0.10000000000E-01 0. -1.
      611    1    3    3    0    0  0.16079213943E-01 -0.14334742173E-02  0.61100866877E+00  0.61130368008E+00  0.10000000000E-01 0.  1.
</event>
<event>
 7   0  0.6206631E-02  0.9118800E+02  0.7818608E-02  0.1180000E+00
       11   -1    0    0    0    0  0.00000000000E+00  0.00000000000E+00  0.11999999989E+02  0.12000000000E+02  0.51109989000E-03 0.  1.
     -623   -1    0    0    0    0  0.00000000000E+00  0.00000000000E+00  0.42561509872E-11  0.25126700000E+02  0.25126700000E+02 0. -1.
      622    2    1    2    0    0 -0.37034029056E-01 -0.38329054022E-01  0.70622842605E+01  0.70632139734E+01  0.10144960501E+00 0.  0.
       11    1    1    2    0    0  0.38692041208E-01  0.36612807315E-01  0.49364984584E+01  0.49367858838E+01  0.51109989000E-03 0.  1.
     -623    1    1    2    0    0 -0.16580121523E-02  0.17162467064E-02  0.12172702536E-02  0.25126700143E+02  0.25126700000E+02 0. -1.
     -611    1    3    3    0    0 -0.62482154296E-01 -0.32826084701E-01  0.30506237982E+01  0.30514565587E+01  0.10000000000E-01 0. -1.
      611    1    3    3    0    0  0.25448125240E-01 -0.55029693203E-02  0.40116604623E+01  0.40117574147E+01  0.10000000000E-01 0.  1.
</event>
<event>
 7   0  0.6206631E-02  0.9118800E+02  0.7818608E-02  0.1180000E+00
       11   -1    0    0    0    0  0.00000000000E+00  0.00000000000E+00  0.11999999989E+02  0.12000000000E+02  0.51109989000E-03 0.  1.
     -623   -1    0    0    0    0  0.00000000000E+00  0.00000000000E+00  0.42561509872E-11  0.25126700000E+02  0.25126700000E+02 0. -1.
      622    2    1    2    0    0  0.35664913461E-01  0.81766054807E-02  0.66875307671E+01  0.66880540668E+01  0.75236941753E-01 0.  0.
       11    1    1    2    0    0 -0.63524593645E-01  0.14838150220E-01  0.53115193248E+01  0.53119199301E+01  0.51109989000E-03 0.  1.
     -623    1    1    2    0    0  0.27859680184E-01 -0.23014755701E-01  0.94989723040E-03  0.25126726003E+02  0.25126700000E+02 0. -1.
     -611    1    3    3    0    0  0.18268033532E-01 -0.31004681978E-01  0.38593669981E+01  0.38595477245E+01  0.10000000000E-01 0. -1.
      611    1    3    3    0    0  0.17396879929E-01  0.39181287458E-01  0.28281637689E+01  0.28285063423E+01  0.10000000000E-01 0.  1.
</event>
<event>
 7   0  0.6206631E-02  0.9118800E+02  0.7818608E-02  0.1180000E+00
       11   -1    0    0    0    0  0.00000000000E+00  0.00000000000E+00  0.11999999989E+02  0.12000000000E+02  0.51109989000E-03 0. -1.
     -623   -1    0    0    0    0  0.00000000000E+00  0.00000000000E+00  0.42561509872E-11  0.25126700000E+02  0.25126700000E+02 0.  1.
      622    2    1    2    0    0  0.24037134065E-02 -0.14533483831E-02  0.11955617080E+02  0.11955933858E+02  0.86987209656E-01 0.  0.
       11    1    1    2    0    0  0.35935568993E-02  0.36284446216E-02  0.43765423589E-01  0.44065324083E-01  0.51109989000E-03 0. -1.
     -623    1    1    2    0    0 -0.59972703059E-02 -0.21750962385E-02  0.61748554102E-03  0.25126700817E+02  0.25126700000E+02 0.  1.
     -611    1    3    3    0    0  0.10505944806E-01 -0.36710986537E-01  0.33106932666E+01  0.33109285672E+01  0.10000000000E-01 0.  1.
      611    1    3    3    0    0 -0.81022313997E-02  0.35257638154E-01  0.86449238134E+01  0.86450052913E+01  0.10000000000E-01 0. -1.
</event>
<event>
 7   0  0.6206631E-02  0.9118800E+02  0.7818608E-02  0.1180000E+00
       11   -1    0    0    0    0  0.00000000000E+00  0.00000000000E+00  0.11999999989E+02  0.12000000000E+02  0.51109989000E-03 0.  1.
     -623   -1    0    0    0    0  0.00000000000E+00  0.00000000000E+00  0.42561509872E-11  0.25126700000E+02  0.25126700000E+02 0. -1.
      622    2    1    2    0    0 -0.63741497977E-02 -0.73789511539E-01  0.11029993250E+02  0.11030627487E+02  0.92228649804E-01 0.  0.
       11    1    1    2    0    0 -0.17458840147E-01  0.10388213827E+00  0.96360161221E+00  0.96934237400E+00  0.51109989000E-03 0.  1.
     -623    1    1    2    0    0  0.23832989944E-01 -0.30092626730E-01  0.64051264707E-02  0.25126730139E+02  0.25126700000E+02 0. -1.
     -611    1    3    3    0    0  0.32984098783E-01 -0.12420708147E-01  0.58106937578E+01  0.58108092527E+01  0.10000000000E-01 0.  1.
      611    1    3    3    0    0 -0.39358248581E-01 -0.61368803392E-01  0.52192994926E+01  0.52198182339E+01  0.10000000000E-01 0.  1.
</event>
<event>
 7   0  0.6206631E-02  0.9118800E+02  0.7818608E-02  0.1180000E+00
       11   -1    0    0    0    0  0.00000000000E+00  0.00000000000E+00  0.11999999989E+02  0.12000000000E+02  0.51109989000E-03 0. -1.
     -623   -1    0    0    0    0  0.00000000000E+00  0.00000000000E+00  0.42561509872E-11  0.25126700000E+02  0.25126700000E+02 0.  1.
      622    2    1    2    0    0  0.71018758137E-02 -0.31214106199E-03  0.11919322242E+02  0.11920077142E+02  0.13396201536E+00 0.  0.
       11    1    1    2    0    0 -0.47954297239E-03  0.49707353898E-02  0.79763730633E-01  0.79921537269E-01  0.51109989000E-03 0. -1.
     -623    1    1    2    0    0 -0.66223328413E-02 -0.46585943278E-02  0.91401663246E-03  0.25126701321E+02  0.25126700000E+02 0.  1.
     -611    1    3    3    0    0 -0.39318955288E-01 -0.63560378810E-02  0.13029445727E+01  0.13035915538E+01  0.10000000000E-01 0.  1.
      611    1    3    3    0    0  0.46420831102E-01  0.60438968191E-02  0.10616377669E+02  0.10616485588E+02  0.10000000000E-01 0. -1.
</event>
<event>
 7   0  0.6206631E-02  0.9118800E+02  0.7818608E-02  0.1180000E+00
       11   -1    0    0    0    0  0.00000000000E+00  0.00000000000E+00  0.11999999989E+02  0.12000000000E+02  0.51109989000E-03 0.  1.
     -623   -1    0    0    0    0  0.00000000000E+00  0.00000000000E+00  0.42561509872E-11  0.25126700000E+02  0.25126700000E+02 0.  1.
      622    2    1    2    0    0 -0.92254374782E-01  0.44019849442E-01  0.96801269235E+01  0.96810392629E+01  0.84943149537E-01 0.  0.
       11    1    1    2    0    0  0.73527935543E-01 -0.81820768933E-01  0.23163143648E+01  0.23189250728E+01  0.51109989000E-03 0.  1.
     -623    1    1    2    0    0  0.18726439239E-01  0.37800919491E-01  0.35587008694E-02  0.25126735664E+02  0.25126700000E+02 0.  1.
     -611    1    3    3    0    0 -0.20811624936E-01  0.54846418532E-02  0.58089770781E+01  0.58090255550E+01  0.10000000000E-01 0.  1.
      611    1    3    3    0    0 -0.71442749846E-01  0.38535207589E-01  0.38711498453E+01  0.38720137079E+01  0.10000000000E-01 0. -1.
</event>
<event>
 7   0  0.6206631E-02  0.9118800E+02  0.7818608E-02  0.1180000E+00
       11   -1    0    0    0    0  0.00000000000E+00  0.00000000000E+00  0.11999999989E+02  0.12000000000E+02  0.51109989000E-03 0.  1.
     -623   -1    0    0    0    0  0.00000000000E+00  0.00000000000E+00  0.42561509872E-11  0.25126700000E+02  0.25126700000E+02 0. -1.
      622    2    1    2    0    0  0.78241500610E-02 -0.48594879667E-02  0.11922740086E+02  0.11923135866E+02  0.96710409567E-01 0.  0.
       11    1    1    2    0    0 -0.37128341702E-02  0.48924132457E-02  0.76616316843E-01  0.76863789099E-01  0.51109989000E-03 0.  1.
     -623    1    1    2    0    0 -0.41113158908E-02 -0.32925278998E-04  0.64358660096E-03  0.25126700345E+02  0.25126700000E+02 0. -1.
     -611    1    3    3    0    0  0.37314101614E-01  0.25432906338E-01  0.84096233723E+01  0.84097505575E+01  0.10000000000E-01 0.  1.
      611    1    3    3    0    0 -0.29489951553E-01 -0.30292394305E-01  0.35131167133E+01  0.35133853088E+01  0.10000000000E-01 0. -1.
</event>
<event>
 7   0  0.6206631E-02  0.9118800E+02  0.7818608E-02  0.1180000E+00
       11   -1    0    0    0    0  0.00000000000E+00  0.00000000000E+00  0.11999999989E+02  0.12000000000E+02  0.51109989000E-03 0.  1.
     -623   -1    0    0    0    0  0.00000000000E+00  0.00000000000E+00  0.42561509872E-11  0.25126700000E+02  0.25126700000E+02 0.  1.
      622    2    1    2    0    0  0.50403654089E-02 -0.10506159619E-01  0.11969584452E+02  0.11970083872E+02  0.10872058580E+00 0.  0.
       11    1    1    2    0    0 -0.14571387341E-02  0.79695757369E-02  0.28793229037E-01  0.29915692408E-01  0.51109989000E-03 0.  1.
     -623    1    1    2    0    0 -0.35832266748E-02  0.25365838825E-02  0.16223084487E-02  0.25126700436E+02  0.25126700000E+02 0.  1.
     -611    1    3    3    0    0 -0.48432029363E-01  0.16340961961E-02  0.72809850514E+01  0.72811531813E+01  0.10000000000E-01 0.  1.
      611    1    3    3    0    0  0.53472394772E-01 -0.12140255816E-01  0.46885994003E+01  0.46889306904E+01  0.10000000000E-01 0. -1.
</event>
<event>
 7   0  0.6206631E-02  0.9118800E+02  0.7818608E-02  0.1180000E+00
       11   -1    0    0    0    0  0.00000000000E+00  0.00000000000E+00  0.11999999989E+02  0.12000000000E+02  0.51109989000E-03 0. -1.
     -623   -1    0    0    0    0  0.00000000000E+00  0.00000000000E+00  0.42561509872E-11  0.25126700000E+02  0.25126700000E+02 0. -1.
      622    2    1    2    0    0  0.41524027319E-01 -0.13679870168E-01  0.78537059734E+01  0.78542477126E+01  0.81229499575E-01 0.  0.
       11    1    1    2    0    0 -0.27642303356E-01  0.76973450122E-02  0.41456483995E+01  0.41457477322E+01  0.51109989000E-03 0. -1.
     -623    1    1    2    0    0 -0.13881723963E-01  0.59825251554E-02  0.64561625556E-03  0.25126704555E+02  0.25126700000E+02 0. -1.
     -611    1    3    3    0    0  0.57369873421E-01 -0.38321375917E-02  0.34708342072E+01  0.34713248309E+01  0.10000000000E-01 0. -1.
      611    1    3    3    0    0 -0.15845846102E-01 -0.98477325758E-02  0.43828717662E+01  0.43829228818E+01  0.10000000000E-01 0.  1.
</event>
<event>
 7   0  0.6206631E-02  0.9118800E+02  0.7818608E-02  0.1180000E+00
       11   -1    0    0    0    0  0.00000000000E+00  0.00000000000E+00  0.11999999989E+02  0.12000000000E+02  0.51109989000E-03 0.  1.
     -623   -1    0    0    0    0  0.00000000000E+00  0.00000000000E+00  0.42561509872E-11  0.25126700000E+02  0.25126700000E+02 0.  1.
      622    2    1    2    0    0  0.57401984770E-03  0.16105556512E-01  0.11789538555E+02  0.11789849132E+02  0.84044738620E-01 0.  0.
       11    1    1    2    0    0 -0.16245685439E-01 -0.32659923331E-01  0.20694947163E+00  0.21014028153E+00  0.51109989000E-03 0.  1.
     -623    1    1    2    0    0  0.15671665592E-01  0.16554366818E-01  0.35119628942E-02  0.25126710586E+02  0.25126700000E+02 0.  1.
     -611    1    3    3    0    0  0.11108266769E-01  0.41153157187E-01  0.98215730596E+01  0.98216706492E+01  0.10000000000E-01 0.  1.
      611    1    3    3    0    0 -0.10534246921E-01 -0.25047600675E-01  0.19679654950E+01  0.19681784833E+01  0.10000000000E-01 0. -1.
</event>
<event>
 7   0  0.6206631E-02  0.9118800E+02  0.7818608E-02  0.1180000E+00
       11   -1    0    0    0    0  0.00000000000E+00  0.00000000000E+00  0.11999999989E+02  0.12000000000E+02  0.51109989000E-03 0.  1.
     -623   -1    0    0    0    0  0.00000000000E+00  0.00000000000E+00  0.42561509872E-11  0.25126700000E+02  0.25126700000E+02 0. -1.
      622    2    1    2    0    0 -0.13007883618E-01  0.27743932799E-01  0.11608126232E+02  0.11608633212E+02  0.10407441241E+00 0.  0.
       11    1    1    2    0    0  0.21935673917E-01 -0.27969648448E-01  0.38974724382E+00  0.39136511126E+00  0.51109989000E-03 0.  1.
     -623    1    1    2    0    0 -0.89277902986E-02  0.22571564863E-03  0.21265128325E-02  0.25126701677E+02  0.25126700000E+02 0. -1.
     -611    1    3    3    0    0  0.94194074307E-02  0.35500267302E-01  0.10855179769E+02  0.10855246511E+02  0.10000000000E-01 0.  1.
      611    1    3    3    0    0 -0.22427291049E-01 -0.77563345029E-02  0.75294646350E+00  0.75338670084E+00  0.10000000000E-01 0. -1.
</event>
<event>
 7   0  0.6206631E-02  0.9118800E+02  0.7818608E-02  0.1180000E+00
       11   -1    0    0    0    0  0.00000000000E+00  0.00000000000E+00  0.11999999989E+02  0.12000000000E+02  0.51109989000E-03 0.  1.
     -623   -1    0    0    0    0  0.00000000000E+00  0.00000000000E+00  0.42561509872E-11  0.25126700000E+02  0.25126700000E+02 0.  1.
      622    2    1    2    0    0 -0.47141986406E-01  0.42880231521E-02  0.10294266556E+02  0.10294833654E+02  0.97135376297E-01 0.  0.
       11    1    1    2    0    0  0.55624047990E-01 -0.50822653689E-02  0.17042497077E+01  0.17051648576E+01  0.51109989000E-03 0.  1.
     -623    1    1    2    0    0 -0.84820615845E-02  0.79424221673E-03  0.14837249130E-02  0.25126701488E+02  0.25126700000E+02 0.  1.
     -611    1    3    3    0    0 -0.28581541670E-01  0.49011056470E-01  0.62298496073E+01  0.62301159795E+01  0.10000000000E-01 0.  1.
      611    1    3    3    0    0 -0.18560444736E-01 -0.44723033318E-01  0.40644169491E+01  0.40647176749E+01  0.10000000000E-01 0. -1.
</event>
<event>
 7   0  0.6206631E-02  0.9118800E+02  0.7818608E-02  0.1180000E+00
       11   -1    0    0    0    0  0.00000000000E+00  0.00000000000E+00  0.11999999989E+02  0.12000000000E+02  0.51109989000E-03 0. -1.
     -623   -1    0    0    0    0  0.00000000000E+00  0.00000000000E+00  0.42561509872E-11  0.25126700000E+02  0.25126700000E+02 0. -1.
      622    2    1    2    0    0  0.88304789047E-01 -0.19611845978E-01  0.32613155623E+01  0.32637069251E+01  0.86147174079E-01 0.  0.
       11    1    1    2    0    0 -0.76621055251E-01  0.57960956812E-01  0.87357326166E+01  0.87362609204E+01  0.51109989000E-03 0. -1.
     -623    1    1    2    0    0 -0.11683733796E-01 -0.38349110834E-01  0.29518102140E-02  0.25126732155E+02  0.25126700000E+02 0. -1.
     -611    1    3    3    0    0  0.48227284255E-01 -0.39539943952E-02  0.27617789899E+01  0.27622209713E+01  0.10000000000E-01 0. -1.
      611    1    3    3    0    0  0.40077504792E-01 -0.15657851583E-01  0.49953657237E+00  0.50148595378E+00  0.10000000000E-01 0.  1.
</event>
<event>
 7   0  0.6206631E-02  0.9118800E+02  0.7818608E-02  0.1180000E+00
       11   -1    0    0    0    0  0.00000000000E+00  0.00000000000E+00  0.11999999989E+02  0.12000000000E+02  0.51109989000E-03 0. -1.
     -623   -1    0    0    0    0  0.00000000000E+00  0.00000000000E+00  0.42561509872E-11  0.25126700000E+02  0.25126700000E+02 0. -1.
      622    2    1    2    0    0 -0.12511727970E-01  0.17454098181E-01  0.10562519390E+02  0.10563823888E+02  0.16461499440E+00 0.  0.
       11    1    1    2    0    0 -0.65185978192E-03 -0.20878754876E-01  0.14360203755E+01  0.14361723878E+01  0.51109989000E-03 0. -1.
     -623    1    1    2    0    0  0.13163587752E-01  0.34246566955E-02  0.14602239324E-02  0.25126703724E+02  0.25126700000E+02 0. -1.
     -611    1    3    3    0    0 -0.12227910666E-01 -0.30826025105E-02  0.10361216059E+02  0.10361228559E+02  0.10000000000E-01 0. -1.
      611    1    3    3    0    0 -0.28381730370E-03  0.20536700691E-01  0.20130333074E+00  0.20259532964E+00  0.10000000000E-01 0.  1.
</event>
<event>
 7   0  0.6206631E-02  0.9118800E+02  0.7818608E-02  0.1180000E+00
       11   -1    0    0    0    0  0.00000000000E+00  0.00000000000E+00  0.11999999989E+02  0.12000000000E+02  0.51109989000E-03 0.  1.
     -623   -1    0    0    0    0  0.00000000000E+00  0.00000000000E+00  0.42561509872E-11  0.25126700000E+02  0.25126700000E+02 0. -1.
      622    2    1    2    0    0  0.33179933617E-01  0.21325987611E-01  0.11340199426E+02  0.11340584830E+02  0.84767677388E-01 0.  0.
       11    1    1    2    0    0 -0.28018829426E-01 -0.30348276341E-01  0.65811786349E+00  0.65941296329E+00  0.51109989000E-03 0.  1.
     -623    1    1    2    0    0 -0.51611041917E-02  0.90222887300E-02  0.16826991315E-02  0.25126702206E+02  0.25126700000E+02 0. -1.
     -611    1    3    3    0    0  0.12911547514E-01  0.18442151259E-01  0.10612937059E+02  0.10612965648E+02  0.10000000000E-01 0.  1.
      611    1    3    3    0    0  0.20268386103E-01  0.28838363516E-02  0.72726236709E+00  0.72761918238E+00  0.10000000000E-01 0. -1.
</event>
<event>
 7   0  0.6206631E-02  0.9118800E+02  0.7818608E-02  0.1180000E+00
       11   -1    0    0    0    0  0.00000000000E+00  0.00000000000E+00  0.11999999989E+02  0.12000000000E+02  0.51109989000E-03 0.  1.
     -623   -1    0    0    0    0  0.00000000000E+00  0.00000000000E+00  0.42561509872E-11  0.25126700000E+02  0.25126700000E+02 0. -1.
      622    2    1    2    0    0 -0.53543196748E-02 -0.72183577644E-02  0.11685169886E+02  0.11685724513E+02  0.11349606089E+00 0.  0.
       11    1    1    2    0    0  0.10946975468E-01  0.51871146589E-02  0.31404080515E+00  0.31427476983E+00  0.51109989000E-03 0.  1.
     -623    1    1    2    0    0 -0.55926557934E-02  0.20312431055E-02  0.78929771250E-03  0.25126700717E+02  0.25126700000E+02 0. -1.
     -611    1    3    3    0    0 -0.91122845238E-02 -0.58123655320E-01  0.73584982773E+01  0.73587402652E+01  0.10000000000E-01 0.  1.
      611    1    3    3    0    0  0.37579648490E-02  0.50905297556E-01  0.43266716089E+01  0.43269842481E+01  0.10000000000E-01 0. -1.
</event>
<event>
 7   0  0.6206631E-02  0.9118800E+02  0.7818608E-02  0.1180000E+00
       11   -1    0    0    0    0  0.00000000000E+00  0.00000000000E+00  0.11999999989E+02  0.12000000000E+02  0.51109989000E-03 0.  1.
     -623   -1    0    0    0    0  0.00000000000E+00  0.00000000000E+00  0.42561509872E-11  0.25126700000E+02  0.25126700000E+02 0. -1.
      622    2    1    2    0    0  0.10186124506E+00 -0.63264981184E-03  0.10089851788E+02  0.10092096248E+02  0.18687282989E+00 0.  0.
       11    1    1    2    0    0 -0.25170783120E-02 -0.46922428803E-02  0.19076991800E+01  0.19077066796E+01  0.51109989000E-03 0.  1.
     -623    1    1    2    0    0 -0.99344166744E-01  0.53248926921E-02  0.24490211507E-02  0.25126897073E+02  0.25126700000E+02 0. -1.
     -611    1    3    3    0    0  0.37484012968E-01 -0.20212654875E-01  0.47649965577E+00  0.47850342171E+00  0.10000000000E-01 0. -1.
      611    1    3    3    0    0  0.64377232089E-01  0.19580005063E-01  0.96133521322E+01  0.96135928259E+01  0.10000000000E-01 0.  1.
</event>
<event>
 7   0  0.6206631E-02  0.9118800E+02  0.7818608E-02  0.1180000E+00
       11   -1    0    0    0    0  0.00000000000E+00  0.00000000000E+00  0.11999999989E+02  0.12000000000E+02  0.51109989000E-03 0. -1.
     -623   -1    0    0    0    0  0.00000000000E+00  0.00000000000E+00  0.42561509872E-11  0.25126700000E+02  0.25126700000E+02 0.  1.
      622    2    1    2    0    0 -0.30099589002E-02 -0.51086377185E-02  0.11742171952E+02  0.11742457914E+02  0.81734752256E-01 0.  0.
       11    1    1    2    0    0  0.74170958441E-02  0.38575373358E-02  0.25740542687E+00  0.25754166441E+00  0.51109989000E-03 0. -1.
     -623    1    1    2    0    0 -0.44071369438E-02  0.12511003828E-02  0.42261054846E-03  0.25126700421E+02  0.25126700000E+02 0.  1.
     -611    1    3    3    0    0 -0.14034618171E-01 -0.35970233482E-01  0.87297024973E+01  0.87297936127E+01  0.10000000000E-01 0. -1.
      611    1    3    3    0    0  0.11024659271E-01  0.30861595764E-01  0.30124694544E+01  0.30126643017E+01  0.10000000000E-01 0.  1.
</event>
<event>
 7   0  0.6206631E-02  0.9118800E+02  0.7818608E-02  0.1180000E+00
       11   -1    0    0    0    0  0.00000000000E+00  0.00000000000E+00  0.11999999989E+02  0.12000000000E+02  0.51109989000E-03 0. -1.
     -623   -1    0    0    0    0  0.00000000000E+00  0.00000000000E+00  0.42561509872E-11  0.25126700000E+02  0.25126700000E+02 0. -1.
      622    2    1    2    0    0 -0.27878752289E-01  0.60137512366E-01  0.86761549600E+01  0.86766730716E+01  0.67800848277E-01 0.  0.
       11    1    1    2    0    0  0.31516281518E-01  0.15476924337E-01  0.33230273485E+01  0.33232128778E+01  0.51109989000E-03 0. -1.
     -623    1    1    2    0    0 -0.36375292289E-02 -0.75614436703E-01  0.81768056190E-03  0.25126814051E+02  0.25126700000E+02 0. -1.
     -611    1    3    3    0    0 -0.46956234979E-01  0.26439923632E-01  0.50979768433E+01  0.50982714573E+01  0.10000000000E-01 0. -1.
      611    1    3    3    0    0  0.19077482690E-01  0.33697588734E-01  0.35781781167E+01  0.35784016143E+01  0.10000000000E-01 0.  1.
</event>
<event>
 7   0  0.6206631E-02  0.9118800E+02  0.7818608E-02  0.1180000E+00
       11   -1    0    0    0    0  0.00000000000E+00  0.00000000000E+00  0.11999999989E+02  0.12000000000E+02  0.51109989000E-03 0. -1.
     -623   -1    0    0    0    0  0.00000000000E+00  0.00000000000E+00  0.42561509872E-11  0.25126700000E+02  0.25126700000E+02 0. -1.
      622    2    1    2    0    0  0.50061289428E-02 -0.17732437913E-01  0.11734554976E+02  0.11734807171E+02  0.74695228853E-01 0.  0.
       11    1    1    2    0    0 -0.14682590419E-01  0.29695719651E-02  0.26476269554E+00  0.26518661918E+00  0.51109989000E-03 0. -1.
     -623    1    1    2    0    0  0.96764614762E-02  0.14762865948E-01  0.68231806499E-03  0.25126706209E+02  0.25126700000E+02 0. -1.
     -611    1    3    3    0    0  0.46391416213E-03 -0.12314133956E-02  0.10941060299E+02  0.10941064948E+02  0.10000000000E-01 0. -1.
      611    1    3    3    0    0  0.45422147807E-02 -0.16501024518E-01  0.79349467681E+00  0.79374222368E+00  0.10000000000E-01 0.  1.
</event>
<event>
 7   0  0.6206631E-02  0.9118800E+02  0.7818608E-02  0.1180000E+00
       11   -1    0    0    0    0  0.00000000000E+00  0.00000000000E+00  0.11999999989E+02  0.12000000000E+02  0.51109989000E-03 0.  1.
     -623   -1    0    0    0    0  0.00000000000E+00  0.00000000000E+00  0.42561509872E-11  0.25126700000E+02  0.25126700000E+02 0. -1.
      622    2    1    2    0    0 -0.43825716274E-01  0.96258633961E-02  0.11023247384E+02  0.11023637684E+02  0.81188358341E-01 0.  0.
       11    1    1    2    0    0  0.42677998018E-01 -0.15025715934E-01  0.97531259765E+00  0.97636166865E+00  0.51109989000E-03 0.  1.
     -623    1    1    2    0    0  0.11477182561E-02  0.53998525380E-02  0.14400078674E-02  0.25126700648E+02  0.25126700000E+02 0. -1.
     -611    1    3    3    0    0 -0.88461253016E-02  0.86242676380E-03  0.27508671774E+00  0.27541187337E+00  0.10000000000E-01 0. -1.
      611    1    3    3    0    0 -0.34979590973E-01  0.87634366323E-02  0.10748160666E+02  0.10748225810E+02  0.10000000000E-01 0.  1.
</event>
<event>
 7   0  0.6206631E-02  0.9118800E+02  0.7818608E-02  0.1180000E+00
       11   -1    0    0    0    0  0.00000000000E+00  0.00000000000E+00  0.11999999989E+02  0.12000000000E+02  0.51109989000E-03 0. -1.
     -623   -1    0    0    0    0  0.00000000000E+00  0.00000000000E+00  0.42561509872E-11  0.25126700000E+02  0.25126700000E+02 0.  1.
      622    2    1    2    0    0  0.14407966986E-03  0.51873354472E-03  0.11996943386E+02  0.11997287273E+02  0.90835117442E-01 0.  0.
       11    1    1    2    0    0  0.23678737454E-03 -0.72691719090E-03  0.25520849009E-02  0.27127177066E-02  0.51109989000E-03 0. -1.
     -623    1    1    2    0    0 -0.38086704440E-03  0.20818364617E-03  0.50451792338E-03  0.25126700009E+02  0.25126700000E+02 0.  1.
     -611    1    3    3    0    0  0.62568646686E-02  0.73993562217E-02  0.11721932300E+02  0.11721940570E+02  0.10000000000E-01 0. -1.
      611    1    3    3    0    0 -0.61127849987E-02 -0.68806226770E-02  0.27501108673E+00  0.27534670315E+00  0.10000000000E-01 0.  1.
</event>
<event>
 6   0  0.6206631E-02  0.9118800E+02  0.7818608E-02  0.1180000E+00
       11   -1    0    0    0    0  0.00000000000E+00  0.00000000000E+00  0.11999999989E+02  0.12000000000E+02  0.51109989000E-03 0.  1.
     -623   -1    0    0    0    0  0.00000000000E+00  0.00000000000E+00  0.42561509872E-11  0.25126700000E+02  0.25126700000E+02 0. -1.
       11    1    1    2    0    0  0.11699312972E+00 -0.48384914355E-01  0.10820769256E+01  0.10894582262E+01  0.51109989000E-03 0.  1.
     -623    1    1    2    0    0  0.35534949709E-01  0.12118302414E+00  0.11903423430E-01  0.25127020170E+02  0.25126700000E+02 0. -1.
     -611    1    1    2    0    0  0.53352264069E-01 -0.57793970846E-01  0.16599637087E+01  0.16618562276E+01  0.10000000000E-01 0. -1.
      611    1    1    2    0    0 -0.20588034350E+00 -0.15004138937E-01  0.92460559314E+01  0.92483653759E+01  0.10000000000E-01 0.  1.
</event>
<event>
 7   0  0.6206631E-02  0.9118800E+02  0.7818608E-02  0.1180000E+00
       11   -1    0    0    0    0  0.00000000000E+00  0.00000000000E+00  0.11999999989E+02  0.12000000000E+02  0.51109989000E-03 0. -1.
     -623   -1    0    0    0    0  0.00000000000E+00  0.00000000000E+00  0.42561509872E-11  0.25126700000E+02  0.25126700000E+02 0.  1.
      622    2    1    2    0    0 -0.27031742119E-03  0.89878212641E-03  0.11995927018E+02  0.11996266321E+02  0.90220525897E-01 0.  0.
       11    1    1    2    0    0 -0.45336336274E-04  0.11596308359E-03  0.36964096467E-02  0.37336537403E-02  0.51109989000E-03 0. -1.
     -623    1    1    2    0    0  0.31565375746E-03 -0.10147452100E-02  0.37656154975E-03  0.25126700025E+02  0.25126700000E+02 0.  1.
     -611    1    3    3    0    0  0.41802068194E-01  0.92194945486E-02  0.73177443443E+01  0.73178763792E+01  0.10000000000E-01 0. -1.
      611    1    3    3    0    0 -0.42072385615E-01 -0.83207124222E-02  0.46781826736E+01  0.46783899418E+01  0.10000000000E-01 0.  1.
</event>
<event>
 7   0  0.6206631E-02  0.9118800E+02  0.7818608E-02  0.1180000E+00
       11   -1    0    0    0    0  0.00000000000E+00  0.00000000000E+00  0.11999999989E+02  0.12000000000E+02  0.51109989000E-03 0.  1.
     -623   -1    0    0    0    0  0.00000000000E+00  0.00000000000E+00  0.42561509872E-11  0.25126700000E+02  0.25126700000E+02 0. -1.
      622    2    1    2    0    0 -0.16523328462E-02 -0.31704330685E-02  0.11885547563E+02  0.11886070601E+02  0.11144809695E+00 0.  0.
       11    1    1    2    0    0  0.24755892542E-02  0.23143394330E-02  0.11387780330E+00  0.11392936416E+00  0.51109989000E-03 0.  1.
     -623    1    1    2    0    0 -0.82325640795E-03  0.85609363548E-03  0.57462263885E-03  0.25126700035E+02  0.25126700000E+02 0. -1.
     -611    1    3    3    0    0 -0.12193458648E-01  0.35481094619E-01  0.17160440856E+01  0.17164832921E+01  0.10000000000E-01 0. -1.
      611    1    3    3    0    0  0.10541125802E-01 -0.38651527687E-01  0.10169503478E+02  0.10169587309E+02  0.10000000000E-01 0.  1.
</event>
<event>
 7   0  0.6206631E-02  0.9118800E+02  0.7818608E-02  0.1180000E+00
       11   -1    0    0    0    0  0.00000000000E+00  0.00000000000E+00  0.11999999989E+02  0.12000000000E+02  0.51109989000E-03 0. -1.
     -623   -1    0    0    0    0  0.00000000000E+00  0.00000000000E+00  0.42561509872E-11  0.25126700000E+02  0.25126700000E+02 0. -1.
      622    2    1    2    0    0  0.27100200128E-01  0.42875363730E-02  0.11734994399E+02  0.11735341621E+02  0.86003552603E-01 0.  0.
       11    1    1    2    0    0 -0.25617289095E-01 -0.40327887346E-02  0.26338419843E+00  0.26465828173E+00  0.51109989000E-03 0. -1.
     -623    1    1    2    0    0 -0.14829110324E-02 -0.25474763831E-03  0.16213916979E-02  0.25126700097E+02  0.25126700000E+02 0. -1.
     -611    1    3    3    0    0  0.50557125034E-02  0.42571071081E-01  0.66383357630E+01  0.66384817209E+01  0.10000000000E-01 0.  1.
      611    1    3    3    0    0  0.22044487625E-01 -0.38283534708E-01  0.50966586360E+01  0.50968599000E+01  0.10000000000E-01 0. -1.
</event>
<event>
 7   0  0.6206631E-02  0.9118800E+02  0.7818608E-02  0.1180000E+00
       11   -1    0    0    0    0  0.00000000000E+00  0.00000000000E+00  0.11999999989E+02  0.12000000000E+02  0.51109989000E-03 0. -1.
     -623   -1    0    0    0    0  0.00000000000E+00  0.00000000000E+00  0.42561509872E-11  0.25126700000E+02  0.25126700000E+02 0.  1.
      622    2    1    2    0    0  0.91730707316E-02  0.95778145308E-04  0.11973377820E+02  0.11973474855E+02  0.47323712057E-01 0.  0.
       11    1    1    2    0    0  0.43291971418E-02 -0.65559116805E-02  0.25325124006E-01  0.26520653365E-01  0.51109989000E-03 0. -1.
     -623    1    1    2    0    0 -0.13502267873E-01  0.64601335352E-02  0.12970454721E-02  0.25126704492E+02  0.25126700000E+02 0.  1.
     -611    1    3    3    0    0  0.19710638096E-01 -0.69989514196E-02  0.32770745405E+01  0.32771565478E+01  0.10000000000E-01 0. -1.
      611    1    3    3    0    0 -0.10537567364E-01  0.70947295649E-02  0.86963032792E+01  0.86963183072E+01  0.10000000000E-01 0. -1.
</event>
<event>
 7   0  0.6206631E-02  0.9118800E+02  0.7818608E-02  0.1180000E+00
       11   -1    0    0    0    0  0.00000000000E+00  0.00000000000E+00  0.11999999989E+02  0.12000000000E+02  0.51109989000E-03 0.  1.
     -623   -1    0    0    0    0  0.00000000000E+00  0.00000000000E+00  0.42561509872E-11  0.25126700000E+02  0.25126700000E+02 0.  1.
      622    2    1    2    0    0 -0.43286615020E-02  0.76467852228E-02  0.11471727405E+02  0.11472179724E+02  0.10149260192E+00 0.  0.
       11    1    1    2    0    0  0.14290108243E-02 -0.53596215340E-02  0.52779060618E+00  0.52782000039E+00  0.51109989000E-03 0.  1.
     -623    1    1    2    0    0  0.28996506778E-02 -0.22871636888E-02  0.48197808482E-03  0.25126700276E+02  0.25126700000E+02 0.  1.
     -611    1    3    3    0    0  0.22984087441E-01 -0.25312022158E-01  0.89383571527E+01  0.89384281367E+01  0.10000000000E-01 0.  1.
      611    1    3    3    0    0 -0.27312748943E-01  0.32958807381E-01  0.25333702521E+01  0.25337515868E+01  0.10000000000E-01 0. -1.
</event>
<event>
 7   0  0.6206631E-02  0.9118800E+02  0.7818608E-02  0.1180000E+00
       11   -1    0    0    0    0  0.00000000000E+00  0.00000000000E+00  0.11999999989E+02  0.12000000000E+02  0.51109989000E-03 0. -1.
     -623   -1    0    0    0    0  0.00000000000E+00  0.00000000000E+00  0.42561509872E-11  0.25126700000E+02  0.25126700000E+02 0.  1.
      622    2    1    2    0    0  0.78374313132E-02  0.50507838014E-03  0.11524390149E+02  0.11524818846E+02  0.99093116614E-01 0.  0.
       11    1    1    2    0    0 -0.84906176871E-02 -0.60864159067E-02  0.47506539513E+00  0.47518051929E+00  0.51109989000E-03 0. -1.
     -623    1    1    2    0    0  0.65318637390E-03  0.55813375265E-02  0.54444453755E-03  0.25126700634E+02  0.25126700000E+02 0.  1.
     -611    1    3    3    0    0 -0.17088077807E-01 -0.43113186556E-01  0.48440687848E+01  0.48443010993E+01  0.10000000000E-01 0.  1.
      611    1    3    3    0    0  0.24925509120E-01  0.43618264936E-01  0.66803213647E+01  0.66805177471E+01  0.10000000000E-01 0. -1.
</event>
<event>
 7   0  0.6206631E-02  0.9118800E+02  0.7818608E-02  0.1180000E+00
       11   -1    0    0    0    0  0.00000000000E+00  0.00000000000E+00  0.11999999989E+02  0.12000000000E+02  0.51109989000E-03 0.  1.
     -623   -1    0    0    0    0  0.00000000000E+00  0.00000000000E+00  0.42561509872E-11  0.25126700000E+02  0.25126700000E+02 0.  1.
      622    2    1    2    0    0 -0.59985509135E-02  0.65789293725E-02  0.11904716494E+02  0.11905072651E+02  0.91655651199E-01 0.  0.
       11    1    1    2    0    0  0.65575434143E-02 -0.60313261443E-02  0.94506918079E-01  0.94927325142E-01  0.51109989000E-03 0.  1.
     -623    1    1    2    0    0 -0.55899250082E-03 -0.54760322822E-03  0.77657737921E-03  0.25126700024E+02  0.25126700000E+02 0.  1.
     -611    1    3    3    0    0  0.17243595321E-01 -0.36280441727E-01  0.45803497025E+01  0.45805367599E+01  0.10000000000E-01 0. -1.
      611    1    3    3    0    0 -0.23242146234E-01  0.42859371099E-01  0.73243667912E+01  0.73245358907E+01  0.10000000000E-01 0.  1.
</event>
<event>
 7   0  0.6206631E-02  0.9118800E+02  0.7818608E-02  0.1180000E+00
       11   -1    0    0    0    0  0.00000000000E+00  0.00000000000E+00  0.11999999989E+02  0.12000000000E+02  0.51109989000E-03 0.  1.
     -623   -1    0    0    0    0  0.00000000000E+00  0.00000000000E+00  0.42561509872E-11  0.25126700000E+02  0.25126700000E+02 0.  1.
      622    2    1    2    0    0 -0.29135726462E-02  0.31131028068E-01  0.10771791436E+02  0.10772335895E+02  0.10369309130E+00 0.  0.
       11    1    1    2    0    0  0.20338225555E-01 -0.62149319492E-02  0.12274613771E+01  0.12276456990E+01  0.51109989000E-03 0.  1.
     -623    1    1    2    0    0 -0.17424652908E-01 -0.24916096119E-01  0.74717618416E-03  0.25126718406E+02  0.25126700000E+02 0.  1.
     -611    1    3    3    0    0  0.34945358327E-01  0.17002423468E-01  0.88618615036E+01  0.88619523566E+01  0.10000000000E-01 0.  1.
      611    1    3    3    0    0 -0.37858930973E-01  0.14128604600E-01  0.19099299322E+01  0.19103835380E+01  0.10000000000E-01 0. -1.
</event>
<event>
 7   0  0.6206631E-02  0.9118800E+02  0.7818608E-02  0.1180000E+00
       11   -1    0    0    0    0  0.00000000000E+00  0.00000000000E+00  0.11999999989E+02  0.12000000000E+02  0.51109989000E-03 0.  1.
     -623   -1    0    0    0    0  0.00000000000E+00  0.00000000000E+00  0.42561509872E-11  0.25126700000E+02  0.25126700000E+02 0.  1.
      622    2    1    2    0    0 -0.10844846594E-01 -0.38167824643E-02  0.10676144561E+02  0.10676502135E+02  0.86619799937E-01 0.  0.
       11    1    1    2    0    0  0.12233659681E-01  0.18343692144E-02  0.13234398330E+01  0.13234977447E+01  0.51109989000E-03 0.  1.
     -623    1    1    2    0    0 -0.13888130868E-02  0.19824132499E-02  0.41559560165E-03  0.25126700120E+02  0.25126700000E+02 0.  1.
     -611    1    3    3    0    0 -0.24877111400E-02  0.39851441431E-01  0.57177066424E+01  0.57178548053E+01  0.10000000000E-01 0.  1.
      611    1    3    3    0    0 -0.83571354541E-02 -0.43668223895E-01  0.49584379181E+01  0.49586473300E+01  0.10000000000E-01 0. -1.
</event>
<event>
 7   0  0.6206631E-02  0.9118800E+02  0.7818608E-02  0.1180000E+00
       11   -1    0    0    0    0  0.00000000000E+00  0.00000000000E+00  0.11999999989E+02  0.12000000000E+02  0.51109989000E-03 0.  1.
     -623   -1    0    0    0    0  0.00000000000E+00  0.00000000000E+00  0.42561509872E-11  0.25126700000E+02  0.25126700000E+02 0.  1.
      622    2    1    2    0    0  0.14230524099E-02  0.17102340978E-02  0.11992953015E+02  0.11993347490E+02  0.97247369045E-01 0.  0.
       11    1    1    2    0    0 -0.25650323279E-02 -0.78255585688E-03  0.60664699756E-02  0.66524480896E-02  0.51109989000E-03 0.  1.
     -623    1    1    2    0    0  0.11419799180E-02 -0.92767824088E-03  0.98050464370E-03  0.25126700062E+02  0.25126700000E+02 0.  1.
     -611    1    3    3    0    0 -0.34453624964E-01  0.18804787503E-01  0.92469090894E+01  0.92469978036E+01  0.10000000000E-01 0.  1.
      611    1    3    3    0    0  0.35876677374E-01 -0.17094553406E-01  0.27460439251E+01  0.27463496861E+01  0.10000000000E-01 0.  1.
</event>
<event>
 7   0  0.6206631E-02  0.9118800E+02  0.7818608E-02  0.1180000E+00
       11   -1    0    0    0    0  0.00000000000E+00  0.00000000000E+00  0.11999999989E+02  0.12000000000E+02  0.51109989000E-03 0. -1.
     -623   -1    0    0    0    0  0.00000000000E+00  0.00000000000E+00  0.42561509872E-11  0.25126700000E+02  0.25126700000E+02 0. -1.
      622    2    1    2    0    0 -0.10356807824E+00  0.60667216978E-01  0.64892126808E+01  0.64905718981E+01  0.56881368008E-01 0.  0.
       11    1    1    2    0    0  0.10393788387E+00 -0.51522355365E-01  0.55082048148E+01  0.55094263023E+01  0.51109989000E-03 0. -1.
     -623    1    1    2    0    0 -0.36980563498E-03 -0.91448616138E-02  0.25824934551E-02  0.25126701800E+02  0.25126700000E+02 0. -1.
     -611    1    3    3    0    0 -0.70678306228E-01  0.62899865262E-01  0.40578963654E+01  0.40590115457E+01  0.10000000000E-01 0. -1.
      611    1    3    3    0    0 -0.32889772010E-01 -0.22326482846E-02  0.24313163153E+01  0.24315603523E+01  0.10000000000E-01 0.  1.
</event>
<event>
 7   0  0.6206631E-02  0.9118800E+02  0.7818608E-02  0.1180000E+00
       11   -1    0    0    0    0  0.00000000000E+00  0.00000000000E+00  0.11999999989E+02  0.12000000000E+02  0.51109989000E-03 0. -1.
     -623   -1    0    0    0    0  0.00000000000E+00  0.00000000000E+00  0.42561509872E-11  0.25126700000E+02  0.25126700000E+02 0.  1.
      622    2    1    2    0    0  0.43550851497E-01  0.82516652344E-02  0.11532862221E+02  0.11533521745E+02  0.11510020799E+00 0.  0.
       11    1    1    2    0    0 -0.54199904760E-01  0.51740738589E-03  0.46331414807E+00  0.46647417765E+00  0.51109989000E-03 0. -1.
     -623    1    1    2    0    0  0.10649053263E-01 -0.87690726203E-02  0.38236200086E-02  0.25126704078E+02  0.25126700000E+02 0.  1.
     -611    1    3    3    0    0 -0.17136198989E-01 -0.37437893226E-01  0.56802127982E+01  0.56803708222E+01  0.10000000000E-01 0. -1.
      611    1    3    3    0    0  0.60687050486E-01  0.45689558460E-01  0.58526494229E+01  0.58531509225E+01  0.10000000000E-01 0.  1.
</event>
<event>
 7   0  0.6206631E-02  0.9118800E+02  0.7818608E-02  0.1180000E+00
       11   -1    0    0    0    0  0.00000000000E+00  0.00000000000E+00  0.11999999989E+02  0.12000000000E+02  0.51109989000E-03 0.  1.
     -623   -1    0    0    0    0  0.00000000000E+00  0.00000000000E+00  0.42561509872E-11  0.25126700000E+02  0.25126700000E+02 0.  1.
      622    2    1    2    0    0 -0.77158198881E-02 -0.23145278967E-01  0.11962819845E+02  0.11963176683E+02  0.89120467226E-01 0.  0.
       11    1    1    2    0    0  0.28565930307E-01  0.12178175160E-01  0.19751377418E-01  0.36806228516E-01  0.51109989000E-03 0.  1.
     -623    1    1    2    0    0 -0.20850110418E-01  0.10967103807E-01  0.17428766547E-01  0.25126717089E+02  0.25126700000E+02 0.  1.
     -611    1    3    3    0    0 -0.18813003865E-01 -0.92364029882E-02  0.79709398617E+00  0.79743216830E+00  0.10000000000E-01 0.  1.
      611    1    3    3    0    0  0.11097183977E-01 -0.13908875979E-01  0.11165725859E+02  0.11165744514E+02  0.10000000000E-01 0.  1.
</event>
<event>
 7   0  0.6206631E-02  0.9118800E+02  0.7818608E-02  0.1180000E+00
       11   -1    0    0    0    0  0.00000000000E+00  0.00000000000E+00  0.11999999989E+02  0.12000000000E+02  0.51109989000E-03 0.  1.
     -623   -1    0    0    0    0  0.00000000000E+00  0.00000000000E+00  0.42561509872E-11  0.25126700000E+02  0.25126700000E+02 0.  1.
      622    2    1    2    0    0 -0.67408689853E-01 -0.62514549132E-01  0.14263773588E+01  0.14299816931E+01  0.42933351157E-01 0.  0.
       11    1    1    2    0    0  0.75062888922E-01  0.37143724684E-01  0.10569672212E+02  0.10570004022E+02  0.51109989000E-03 0.  1.
     -623    1    1    2    0    0 -0.76541990686E-02  0.25370824448E-01  0.39504184105E-02  0.25126714285E+02  0.25126700000E+02 0.  1.
     -611    1    3    3    0    0 -0.46023521447E-01 -0.45208488377E-01  0.70661271670E+00  0.70962208488E+00  0.10000000000E-01 0.  1.
      611    1    3    3    0    0 -0.21385168407E-01 -0.17306060755E-01  0.71976464210E+00  0.72035960824E+00  0.10000000000E-01 0. -1.
</event>
<event>
 7   0  0.6206631E-02  0.9118800E+02  0.7818608E-02  0.1180000E+00
       11   -1    0    0    0    0  0.00000000000E+00  0.00000000000E+00  0.11999999989E+02  0.12000000000E+02  0.51109989000E-03 0.  1.
     -623   -1    0    0    0    0  0.00000000000E+00  0.00000000000E+00  0.42561509872E-11  0.25126700000E+02  0.25126700000E+02 0. -1.
      622    2    1    2    0    0 -0.82487797526E-02  0.27816907673E-02  0.11840804719E+02  0.11841222517E+02  0.99088419781E-01 0.  0.
       11    1    1    2    0    0  0.68330819641E-02  0.49988403298E-03  0.15862851043E+00  0.15877722267E+00  0.51109989000E-03 0.  1.
     -623    1    1    2    0    0  0.14156977885E-02 -0.32815748003E-02  0.56675955922E-03  0.25126700261E+02  0.25126700000E+02 0. -1.
     -611    1    3    3    0    0 -0.42308740989E-01 -0.11447208546E-01  0.94921614832E+01  0.94922679425E+01  0.10000000000E-01 0.  1.
      611    1    3    3    0    0  0.34059961236E-01  0.14228899313E-01  0.23486432359E+01  0.23489545743E+01  0.10000000000E-01 0. -1.
</event>
<event>
 7   0  0.6206631E-02  0.9118800E+02  0.7818608E-02  0.1180000E+00
       11   -1    0    0    0    0  0.00000000000E+00  0.00000000000E+00  0.11999999989E+02  0.12000000000E+02  0.51109989000E-03 0. -1.
     -623   -1    0    0    0    0  0.00000000000E+00  0.00000000000E+00  0.42561509872E-11  0.25126700000E+02  0.25126700000E+02 0. -1.
      622    2    1    2    0    0 -0.54996711801E-02 -0.23557099882E-02  0.11994400293E+02  0.11994812661E+02  0.99280332519E-01 0.  0.
       11    1    1    2    0    0  0.27090840089E-02  0.24405200076E-03  0.43869959750E-02  0.51870660635E-02  0.51109989000E-03 0. -1.
     -623    1    1    2    0    0  0.27905871712E-02  0.21116579875E-02  0.12127000178E-02  0.25126700273E+02  0.25126700000E+02 0. -1.
     -611    1    3    3    0    0 -0.39899324336E-01 -0.21548871301E-01  0.34099484407E+01  0.34102646053E+01  0.10000000000E-01 0.  1.
      611    1    3    3    0    0  0.34399653156E-01  0.19193161313E-01  0.85844518524E+01  0.85845480556E+01  0.10000000000E-01 0. -1.
</event>
<event>
 7   0  0.6206631E-02  0.9118800E+02  0.7818608E-02  0.1180000E+00
       11   -1    0    0    0    0  0.00000000000E+00  0.00000000000E+00  0.11999999989E+02  0.12000000000E+02  0.51109989000E-03 0.  1.
     -623   -1    0    0    0    0  0.00000000000E+00  0.00000000000E+00  0.42561509872E-11  0.25126700000E+02  0.25126700000E+02 0. -1.
      622    2    1    2    0    0  0.61427036413E-04  0.19665880188E-02  0.11941920282E+02  0.11942393050E+02  0.10624433630E+00 0.  0.
       11    1    1    2    0    0 -0.17855894432E-02 -0.84053486957E-03  0.57570776489E-01  0.57606860332E-01  0.51109989000E-03 0.  1.
     -623    1    1    2    0    0  0.17241624068E-02 -0.11260531492E-02  0.50893013462E-03  0.25126700090E+02  0.25126700000E+02 0. -1.
     -611    1    3    3    0    0  0.15742717667E-01  0.47454721661E-01  0.80672655432E+01  0.80674266733E+01  0.10000000000E-01 0.  1.
      611    1    3    3    0    0 -0.15681290631E-01 -0.45488133642E-01  0.38746547392E+01  0.38749663768E+01  0.10000000000E-01 0. -1.
</event>
<event>
 7   0  0.6206631E-02  0.9118800E+02  0.7818608E-02  0.1180000E+00
       11   -1    0    0    0    0  0.00000000000E+00  0.00000000000E+00  0.11999999989E+02  0.12000000000E+02  0.51109989000E-03 0.  1.
     -623   -1    0    0    0    0  0.00000000000E+00  0.00000000000E+00  0.42561509872E-11  0.25126700000E+02  0.25126700000E+02 0. -1.
      622    2    1    2    0    0 -0.22176241443E-02  0.16845993625E-02  0.11953436361E+02  0.11953792883E+02  0.92280633422E-01 0.  0.
       11    1    1    2    0    0  0.24416987969E-02 -0.32518087194E-03  0.46138540736E-01  0.46207075216E-01  0.51109989000E-03 0.  1.
     -623    1    1    2    0    0 -0.22407465263E-03 -0.13594184906E-02  0.42508771546E-03  0.25126700041E+02  0.25126700000E+02 0. -1.
     -611    1    3    3    0    0  0.17160514231E-03 -0.39300297183E-01  0.32356381213E+01  0.32358922409E+01  0.10000000000E-01 0. -1.
      611    1    3    3    0    0 -0.23892292866E-02  0.40984896546E-01  0.87177982394E+01  0.87179006425E+01  0.10000000000E-01 0.  1.
</event>
<event>
 7   0  0.6206631E-02  0.9118800E+02  0.7818608E-02  0.1180000E+00
       11   -1    0    0    0    0  0.00000000000E+00  0.00000000000E+00  0.11999999989E+02  0.12000000000E+02  0.51109989000E-03 0. -1.
     -623   -1    0    0    0    0  0.00000000000E+00  0.00000000000E+00  0.42561509872E-11  0.25126700000E+02  0.25126700000E+02 0.  1.
      622    2    1    2    0    0  0.93078156695E-02  0.45967969231E-01  0.11267225257E+02  0.11267629121E+02  0.83074239212E-01 0.  0.
       11    1    1    2    0    0  0.82949561275E-02 -0.88755685620E-01  0.72688173813E+00  0.73232759096E+00  0.51109989000E-03 0. -1.
     -623    1    1    2    0    0 -0.17602771797E-01  0.42787716388E-01  0.58929941056E-02  0.25126743288E+02  0.25126700000E+02 0.  1.
     -611    1    3    3    0    0 -0.26009455985E-01  0.33684246490E-01  0.30563446275E+01  0.30566572596E+01  0.10000000000E-01 0. -1.
      611    1    3    3    0    0  0.35317271655E-01  0.12283722742E-01  0.82108806294E+01  0.82109718614E+01  0.10000000000E-01 0.  1.
</event>
<event>
 7   0  0.6206631E-02  0.9118800E+02  0.7818608E-02  0.1180000E+00
       11   -1    0    0    0    0  0.00000000000E+00  0.00000000000E+00  0.11999999989E+02  0.12000000000E+02  0.51109989000E-03 0.  1.
     -623   -1    0    0    0    0  0.00000000000E+00  0.00000000000E+00  0.42561509872E-11  0.25126700000E+02  0.25126700000E+02 0.  1.
      622    2    1    2    0    0  0.38580543323E-01 -0.63123604617E-02  0.10719325226E+02  0.10720644689E+02  0.16358769706E+00 0.  0.
       11    1    1    2    0    0 -0.52974704795E-01 -0.65711909051E-01  0.12764598733E+01  0.12792476084E+01  0.51109989000E-03 0.  1.
     -623    1    1    2    0    0  0.14394161473E-01  0.72024269513E-01  0.42148898627E-02  0.25126807703E+02  0.25126700000E+02 0.  1.
     -611    1    3    3    0    0 -0.58799333641E-01  0.24879618500E-01  0.46684227210E+01  0.46688699981E+01  0.10000000000E-01 0. -1.
      611    1    3    3    0    0  0.97379876964E-01 -0.31191978962E-01  0.60509025050E+01  0.60517746905E+01  0.10000000000E-01 0.  1.
</event>
<event>
 7   0  0.6206631E-02  0.9118800E+02  0.7818608E-02  0.1180000E+00
       11   -1    0    0    0    0  0.00000000000E+00  0.00000000000E+00  0.11999999989E+02  0.12000000000E+02  0.51109989000E-03 0. -1.
     -623   -1    0    0    0    0  0.00000000000E+00  0.00000000000E+00  0.42561509872E-11  0.25126700000E+02  0.25126700000E+02 0. -1.
      622    2    1    2    0    0  0.10540082885E-01 -0.41741233199E-01  0.29921910706E+01  0.29943289640E+01  0.10461891800E+00 0.  0.
       11    1    1    2    0    0  0.11451744991E-01  0.12328941283E-01  0.90056283680E+01  0.90056441029E+01  0.51109989000E-03 0. -1.
     -623    1    1    2    0    0 -0.21991827877E-01  0.29412291916E-01  0.21805505614E-02  0.25126726933E+02  0.25126700000E+02 0. -1.
     -611    1    3    3    0    0 -0.70143715933E-02 -0.33391405054E-01  0.28685432081E+01  0.28687635532E+01  0.10000000000E-01 0. -1.
      611    1    3    3    0    0  0.17554454479E-01 -0.83498281445E-02  0.12364786249E+00  0.12556541085E+00  0.10000000000E-01 0.  1.
</event>
<event>
 7   0  0.6206631E-02  0.9118800E+02  0.7818608E-02  0.1180000E+00
       11   -1    0    0    0    0  0.00000000000E+00  0.00000000000E+00  0.11999999989E+02  0.12000000000E+02  0.51109989000E-03 0. -1.
     -623   -1    0    0    0    0  0.00000000000E+00  0.00000000000E+00  0.42561509872E-11  0.25126700000E+02  0.25126700000E+02 0. -1.
      622    2    1    2    0    0 -0.38125036161E-02 -0.23188027993E-01  0.11912608949E+02  0.11913048779E+02  0.99634472313E-01 0.  0.
       11    1    1    2    0    0  0.23206260246E-01  0.48312775071E-01  0.68431496188E-01  0.86924022245E-01  0.51109989000E-03 0. -1.
     -623    1    1    2    0    0 -0.19393756629E-01 -0.25124747077E-01  0.18959544391E-01  0.25126727199E+02  0.25126700000E+02 0. -1.
     -611    1    3    3    0    0 -0.23607655365E-01 -0.31103612517E-01  0.11157377408E+02  0.11157450219E+02  0.10000000000E-01 0. -1.
      611    1    3    3    0    0  0.19795151749E-01  0.79155845238E-02  0.75523154041E+00  0.75559856018E+00  0.10000000000E-01 0.  1.
</event>
<event>
 7   0  0.6206631E-02  0.9118800E+02  0.7818608E-02  0.1180000E+00
       11   -1    0    0    0    0  0.00000000000E+00  0.00000000000E+00  0.11999999989E+02  0.12000000000E+02  0.51109989000E-03 0. -1.
     -623   -1    0    0    0    0  0.00000000000E+00  0.00000000000E+00  0.42561509872E-11  0.25126700000E+02  0.25126700000E+02 0.  1.
      622    2    1    2    0    0 -0.23010926418E-01  0.10868710707E+00  0.92496669933E+01  0.92509619749E+01  0.10777561715E+00 0.  0.
       11    1    1    2    0    0  0.22579051211E-01 -0.11309777398E+00  0.27466170507E+01  0.27490373596E+01  0.51109989000E-03 0. -1.
     -623    1    1    2    0    0  0.43187520616E-03  0.44106669153E-02  0.37159451918E-02  0.25126700666E+02  0.25126700000E+02 0.  1.
     -611    1    3    3    0    0 -0.21492043740E-02  0.68358202374E-01  0.20873332027E+01  0.20884772831E+01  0.10000000000E-01 0.  1.
      611    1    3    3    0    0 -0.20861722044E-01  0.40328904696E-01  0.71623337906E+01  0.71624846918E+01  0.10000000000E-01 0. -1.
</event>
<event>
 7   0  0.6206631E-02  0.9118800E+02  0.7818608E-02  0.1180000E+00
       11   -1    0    0    0    0  0.00000000000E+00  0.00000000000E+00  0.11999999989E+02  0.12000000000E+02  0.51109989000E-03 0.  1.
     -623   -1    0    0    0    0  0.00000000000E+00  0.00000000000E+00  0.42561509872E-11  0.25126700000E+02  0.25126700000E+02 0. -1.
      622    2    1    2    0    0 -0.41222073023E-02 -0.64674320494E-03  0.11963868905E+02  0.11964485199E+02  0.12136508263E+00 0.  0.
       11    1    1    2    0    0  0.31547826997E-02  0.14189686367E-02  0.35342194100E-01  0.35514757958E-01  0.51109989000E-03 0.  1.
     -623    1    1    2    0    0  0.96742460256E-03 -0.77222543174E-03  0.78888956409E-03  0.25126700043E+02  0.25126700000E+02 0. -1.
     -611    1    3    3    0    0 -0.31123470579E-01  0.81057522969E-04  0.92301467709E+00  0.92359340141E+00  0.10000000000E-01 0. -1.
      611    1    3    3    0    0  0.27001263277E-01 -0.72780072791E-03  0.11040854228E+02  0.11040891798E+02  0.10000000000E-01 0.  1.
</event>
<event>
 7   0  0.6206631E-02  0.9118800E+02  0.7818608E-02  0.1180000E+00
       11   -1    0    0    0    0  0.00000000000E+00  0.00000000000E+00  0.11999999989E+02  0.12000000000E+02  0.51109989000E-03 0.  1.
     -623   -1    0    0    0    0  0.00000000000E+00  0.00000000000E+00  0.42561509872E-11  0.25126700000E+02  0.25126700000E+02 0.  1.
      622    2    1    2    0    0 -0.37001343288E-02  0.25576968266E-01  0.10764889793E+02  0.10765005796E+02  0.42774573975E-01 0.  0.
       11    1    1    2    0    0  0.26616194871E-02 -0.26018307146E-01  0.12347170995E+01  0.12349941755E+01  0.51109989000E-03 0.  1.
     -623    1    1    2    0    0  0.10385148416E-02  0.44133887982E-03  0.39309672905E-03  0.25126700028E+02  0.25126700000E+02 0.  1.
     -611    1    3    3    0    0 -0.44968539430E-02  0.13507612623E-01  0.95350347812E+01  0.95350506530E+01  0.10000000000E-01 0.  1.
      611    1    3    3    0    0  0.79671961427E-03  0.12069355643E-01  0.12298550118E+01  0.12299551431E+01  0.10000000000E-01 0. -1.
</event>
<event>
 7   0  0.6206631E-02  0.9118800E+02  0.7818608E-02  0.1180000E+00
       11   -1    0    0    0    0  0.00000000000E+00  0.00000000000E+00  0.11999999989E+02  0.12000000000E+02  0.51109989000E-03 0.  1.
     -623   -1    0    0    0    0  0.00000000000E+00  0.00000000000E+00  0.42561509872E-11  0.25126700000E+02  0.25126700000E+02 0. -1.
      622    2    1    2    0    0 -0.68914210051E-01 -0.10168815061E+00  0.68883635839E+01  0.68902172790E+01  0.10223326222E+00 0.  0.
       11    1    1    2    0    0  0.10584144125E+00  0.71983338427E-01  0.51081342918E+01  0.51097377835E+01  0.51109989000E-03 0.  1.
     -623    1    1    2    0    0 -0.36927231200E-01  0.29704812184E-01  0.35021133726E-02  0.25126744937E+02  0.25126700000E+02 0. -1.
     -611    1    3    3    0    0 -0.42344963909E-01 -0.27228036370E-01  0.48847114977E+01  0.48849811543E+01  0.10000000000E-01 0.  1.
      611    1    3    3    0    0 -0.26569246142E-01 -0.74460114242E-01  0.20036520862E+01  0.20052361247E+01  0.10000000000E-01 0. -1.
</event>
<event>
 7   0  0.6206631E-02  0.9118800E+02  0.7818608E-02  0.1180000E+00
       11   -1    0    0    0    0  0.00000000000E+00  0.00000000000E+00  0.11999999989E+02  0.12000000000E+02  0.51109989000E-03 0.  1.
     -623   -1    0    0    0    0  0.00000000000E+00  0.00000000000E+00  0.42561509872E-11  0.25126700000E+02  0.25126700000E+02 0.  1.
      622    2    1    2    0    0  0.11539367293E-01 -0.10059205220E-01  0.11977636941E+02  0.11977828263E+02  0.65945771462E-01 0.  0.
       11    1    1    2    0    0 -0.10057856956E-02  0.11810220000E-01  0.18727507596E-01  0.22169205336E-01  0.51109989000E-03 0.  1.
     -623    1    1    2    0    0 -0.10533581597E-01 -0.17510147803E-02  0.36355400611E-02  0.25126702532E+02  0.25126700000E+02 0.  1.
     -611    1    3    3    0    0  0.28927527469E-01  0.11569963150E-01  0.86084716410E+01  0.86085338275E+01  0.10000000000E-01 0.  1.
      611    1    3    3    0    0 -0.17388160177E-01 -0.21629168370E-01  0.33691653005E+01  0.33692944352E+01  0.10000000000E-01 0.  1.
</event>
<event>
 7   0  0.6206631E-02  0.9118800E+02  0.7818608E-02  0.1180000E+00
       11   -1    0    0    0    0  0.00000000000E+00  0.00000000000E+00  0.11999999989E+02  0.12000000000E+02  0.51109989000E-03 0. -1.
     -623   -1    0    0    0    0  0.00000000000E+00  0.00000000000E+00  0.42561509872E-11  0.25126700000E+02  0.25126700000E+02 0. -1.
      622    2    1    2    0    0 -0.26021041363E-01 -0.15624322000E-01  0.69335705424E+01  0.69342689584E+01  0.93617874342E-01 0.  0.
       11    1    1    2    0    0  0.62982154313E-01  0.88072063865E-01  0.50644420143E+01  0.50655993345E+01  0.51109989000E-03 0. -1.
     -623    1    1    2    0    0 -0.36961112950E-01 -0.72447741865E-01  0.19874324156E-02  0.25126831707E+02  0.25126700000E+02 0. -1.
     -611    1    3    3    0    0 -0.46272250862E-01 -0.45071212285E-03  0.62195290793E+01  0.62197092611E+01  0.10000000000E-01 0. -1.
      611    1    3    3    0    0  0.20251209499E-01 -0.15173609877E-01  0.71404146316E+00  0.71455969732E+00  0.10000000000E-01 0.  1.
</event>
<event>
 7   0  0.6206631E-02  0.9118800E+02  0.7818608E-02  0.1180000E+00
       11   -1    0    0    0    0  0.00000000000E+00  0.00000000000E+00  0.11999999989E+02  0.12000000000E+02  0.51109989000E-03 0.  1.
     -623   -1    0    0    0    0  0.00000000000E+00  0.00000000000E+00  0.42561509872E-11  0.25126700000E+02  0.25126700000E+02 0. -1.
      622    2    1    2    0    0  0.72849507332E-02  0.74270468680E-02  0.11966887336E+02  0.11967147656E+02  0.78245001760E-01 0.  0.
       11    1    1    2    0    0 -0.10046010429E-01 -0.80324058809E-02  0.30225024029E-01  0.32852019276E-01  0.51109989000E-03 0.  1.
     -623    1    1    2    0    0  0.27610596954E-02  0.60535901286E-03  0.28876294463E-02  0.25126700325E+02  0.25126700000E+02 0. -1.
     -611    1    3    3    0    0 -0.33607730620E-01  0.81844078386E-02  0.46669399129E+01  0.46670788096E+01  0.10000000000E-01 0.  1.
      611    1    3    3    0    0  0.40892681353E-01 -0.75736097058E-03  0.72999474226E+01  0.73000688461E+01  0.10000000000E-01 0. -1.
</event>
<event>
 7   0  0.6206631E-02  0.9118800E+02  0.7818608E-02  0.1180000E+00
       11   -1    0    0    0    0  0.00000000000E+00  0.00000000000E+00  0.11999999989E+02  0.12000000000E+02  0.51109989000E-03 0.  1.
     -623   -1    0    0    0    0  0.00000000000E+00  0.00000000000E+00  0.42561509872E-11  0.25126700000E+02  0.25126700000E+02 0.  1.
      622    2    1    2    0    0  0.11041387646E-01  0.35155999529E-01  0.11759038340E+02  0.11759691913E+02  0.11837807538E+00 0.  0.
       11    1    1    2    0    0 -0.92681984831E-01 -0.71095935470E-01  0.20980415146E+00  0.24013043444E+00  0.51109989000E-03 0.  1.
     -623    1    1    2    0    0  0.81640597185E-01  0.35939935941E-01  0.31157498019E-01  0.25126877652E+02  0.25126700000E+02 0.  1.
     -611    1    3    3    0    0  0.32769866199E-01 -0.37861190075E-02  0.10684588395E+01  0.10690147289E+01  0.10000000000E-01 0. -1.
      611    1    3    3    0    0 -0.21728478552E-01  0.38942118536E-01  0.10690579500E+02  0.10690677185E+02  0.10000000000E-01 0.  1.
</event>
<event>
 7   0  0.6206631E-02  0.9118800E+02  0.7818608E-02  0.1180000E+00
       11   -1    0    0    0    0  0.00000000000E+00  0.00000000000E+00  0.11999999989E+02  0.12000000000E+02  0.51109989000E-03 0. -1.
     -623   -1    0    0    0    0  0.00000000000E+00  0.00000000000E+00  0.42561509872E-11  0.25126700000E+02  0.25126700000E+02 0.  1.
      622    2    1    2    0    0  0.43996691871E-02 -0.12687557339E-01  0.11629122681E+02  0.11629642925E+02  0.10917836469E+00 0.  0.
       11    1    1    2    0    0 -0.21842604296E-01  0.10609533473E-01  0.36955360355E+00  0.37035089940E+00  0.51109989000E-03 0. -1.
     -623    1    1    2    0    0  0.17442935109E-01  0.20780238664E-02  0.13237047659E-02  0.25126706175E+02  0.25126700000E+02 0.  1.
     -611    1    3    3    0    0  0.56612140431E-02  0.12585103154E-01  0.29758902817E+00  0.29807660736E+00  0.10000000000E-01 0.  1.
      611    1    3    3    0    0 -0.12615448559E-02 -0.25272660493E-01  0.11331533653E+02  0.11331566318E+02  0.10000000000E-01 0. -1.
</event>
<event>
 7   0  0.6206631E-02  0.9118800E+02  0.7818608E-02  0.1180000E+00
       11   -1    0    0    0    0  0.00000000000E+00  0.00000000000E+00  0.11999999989E+02  0.12000000000E+02  0.51109989000E-03 0.  1.
     -623   -1    0    0    0    0  0.00000000000E+00  0.00000000000E+00  0.42561509872E-11  0.25126700000E+02  0.25126700000E+02 0.  1.
      622    2    1    2    0    0  0.63846881475E-02  0.67009267316E-02  0.11778883096E+02  0.11779347065E+02  0.10413747386E+00 0.  0.
       11    1    1    2    0    0 -0.47646251334E-02 -0.71639611116E-02  0.22048447608E+00  0.22065287083E+00  0.51109989000E-03 0.  1.
     -623    1    1    2    0    0 -0.16200630141E-02  0.46303437999E-03  0.63241697044E-03  0.25126700064E+02  0.25126700000E+02 0.  1.
     -611    1    3    3    0    0 -0.24531371390E-01 -0.27521458186E-01  0.20901363169E+01  0.20904853604E+01  0.10000000000E-01 0. -1.
      611    1    3    3    0    0  0.30916059537E-01  0.34222384917E-01  0.96887467791E+01  0.96888617043E+01  0.10000000000E-01 0.  1.
</event>
<event>
 7   0  0.6206631E-02  0.9118800E+02  0.7818608E-02  0.1180000E+00
       11   -1    0    0    0    0  0.00000000000E+00  0.00000000000E+00  0.11999999989E+02  0.12000000000E+02  0.51109989000E-03 0.  1.
     -623   -1    0    0    0    0  0.00000000000E+00  0.00000000000E+00  0.42561509872E-11  0.25126700000E+02  0.25126700000E+02 0. -1.
      622    2    1    2    0    0 -0.30880019139E-02  0.12929603909E-01  0.11982642907E+02  0.11983068832E+02  0.10015421481E+00 0.  0.
       11    1    1    2    0    0  0.13022623017E-01  0.16685492510E-02  0.10667251942E-01  0.16924073208E-01  0.51109989000E-03 0.  1.
     -623    1    1    2    0    0 -0.99346211029E-02 -0.14598153160E-01  0.66898297817E-02  0.25126707095E+02  0.25126700000E+02 0. -1.
     -611    1    3    3    0    0 -0.37112726326E-01  0.87092723426E-02  0.10157929814E+02  0.10158006266E+02  0.10000000000E-01 0.  1.
      611    1    3    3    0    0  0.34024724412E-01  0.42203315661E-02  0.18247130938E+01  0.18250625655E+01  0.10000000000E-01 0. -1.
</event>
<event>
 7   0  0.6206631E-02  0.9118800E+02  0.7818608E-02  0.1180000E+00
       11   -1    0    0    0    0  0.00000000000E+00  0.00000000000E+00  0.11999999989E+02  0.12000000000E+02  0.51109989000E-03 0.  1.
     -623   -1    0    0    0    0  0.00000000000E+00  0.00000000000E+00  0.42561509872E-11  0.25126700000E+02  0.25126700000E+02 0.  1.
      622    2    1    2    0    0  0.23029983043E-02 -0.36166708262E-02  0.11995040770E+02  0.11995336810E+02  0.84164903347E-01 0.  0.
       11    1    1    2    0    0  0.20009122880E-03 -0.11784183885E-02  0.44777154769E-02  0.46626028585E-02  0.51109989000E-03 0.  1.
     -623    1    1    2    0    0 -0.25030895331E-02  0.47950892147E-02  0.48150348480E-03  0.25126700587E+02  0.25126700000E+02 0.  1.
     -611    1    3    3    0    0  0.39342208552E-01  0.10669443743E-01  0.49955499305E+01  0.49957262490E+01  0.10000000000E-01 0. -1.
      611    1    3    3    0    0 -0.37039210247E-01 -0.14286114569E-01  0.69994908396E+01  0.69996105613E+01  0.10000000000E-01 0.  1.
</event>
<event>
 7   0  0.6206631E-02  0.9118800E+02  0.7818608E-02  0.1180000E+00
       11   -1    0    0    0    0  0.00000000000E+00  0.00000000000E+00  0.11999999989E+02  0.12000000000E+02  0.51109989000E-03 0.  1.
     -623   -1    0    0    0    0  0.00000000000E+00  0.00000000000E+00  0.42561509872E-11  0.25126700000E+02  0.25126700000E+02 0. -1.
      622    2    1    2    0    0  0.13889240347E-01 -0.34265632007E-01  0.11489162319E+02  0.11489475167E+02  0.76300593338E-01 0.  0.
       11    1    1    2    0    0 -0.16258963888E-01  0.34097738675E-01  0.50912489631E+00  0.51052466244E+00  0.51109989000E-03 0.  1.
     -623    1    1    2    0    0  0.23697235409E-02  0.16789333192E-03  0.17127741153E-02  0.25126700171E+02  0.25126700000E+02 0. -1.
     -611    1    3    3    0    0  0.33079523906E-01 -0.19286442494E-01  0.28719938098E+01  0.28722664683E+01  0.10000000000E-01 0. -1.
      611    1    3    3    0    0 -0.19190283559E-01 -0.14979189513E-01  0.86171685090E+01  0.86172086986E+01  0.10000000000E-01 0.  1.
</event>
<event>
 7   0  0.6206631E-02  0.9118800E+02  0.7818608E-02  0.1180000E+00
       11   -1    0    0    0    0  0.00000000000E+00  0.00000000000E+00  0.11999999989E+02  0.12000000000E+02  0.51109989000E-03 0. -1.
     -623   -1    0    0    0    0  0.00000000000E+00  0.00000000000E+00  0.42561509872E-11  0.25126700000E+02  0.25126700000E+02 0. -1.
      622    2    1    2    0    0 -0.16873330131E-02 -0.20018307126E-02  0.11939752356E+02  0.11940200932E+02  0.10346549232E+00 0.  0.
       11    1    1    2    0    0  0.16657637344E-02 -0.73039306142E-04  0.59773543141E-01  0.59798978138E-01  0.51109989000E-03 0. -1.
     -623    1    1    2    0    0  0.21569278744E-04  0.20748700188E-02  0.47408978854E-03  0.25126700090E+02  0.25126700000E+02 0. -1.
     -611    1    3    3    0    0 -0.25886906217E-01 -0.44497332111E-01  0.52298691505E+01  0.52301320706E+01  0.10000000000E-01 0.  1.
      611    1    3    3    0    0  0.24199573204E-01  0.42495501399E-01  0.67098832057E+01  0.67100688612E+01  0.10000000000E-01 0. -1.
</event>
<event>
 7   0  0.6206631E-02  0.9118800E+02  0.7818608E-02  0.1180000E+00
       11   -1    0    0    0    0  0.00000000000E+00  0.00000000000E+00  0.11999999989E+02  0.12000000000E+02  0.51109989000E-03 0. -1.
     -623   -1    0    0    0    0  0.00000000000E+00  0.00000000000E+00  0.42561509872E-11  0.25126700000E+02  0.25126700000E+02 0. -1.
      622    2    1    2    0    0  0.60817215968E-02  0.60554533010E-02  0.10459303715E+02  0.10459658210E+02  0.85685507956E-01 0.  0.
       11    1    1    2    0    0 -0.86864292908E-02 -0.57734583212E-02  0.15403062530E+01  0.15403416508E+01  0.51109989000E-03 0. -1.
     -623    1    1    2    0    0  0.26047076940E-02 -0.28199497981E-03  0.39002126310E-03  0.25126700140E+02  0.25126700000E+02 0. -1.
     -611    1    3    3    0    0 -0.64626960270E-02 -0.26556847166E-01  0.82822970574E+01  0.82823481923E+01  0.10000000000E-01 0. -1.
      611    1    3    3    0    0  0.12544417624E-01  0.32612300467E-01  0.21770066575E+01  0.21773100173E+01  0.10000000000E-01 0.  1.
</event>
<event>
 7   0  0.6206631E-02  0.9118800E+02  0.7818608E-02  0.1180000E+00
       11   -1    0    0    0    0  0.00000000000E+00  0.00000000000E+00  0.11999999989E+02  0.12000000000E+02  0.51109989000E-03 0. -1.
     -623   -1    0    0    0    0  0.00000000000E+00  0.00000000000E+00  0.42561509872E-11  0.25126700000E+02  0.25126700000E+02 0.  1.
      622    2    1    2    0    0 -0.39337498567E-01 -0.28571837534E-01  0.64342027132E+01  0.64350241920E+01  0.90598060204E-01 0.  0.
       11    1    1    2    0    0  0.58929614992E-02  0.49681129535E-02  0.55649370875E+01  0.55649424488E+01  0.51109989000E-03 0. -1.
     -623    1    1    2    0    0  0.33444537068E-01  0.23603724581E-01  0.86018837637E-03  0.25126733359E+02  0.25126700000E+02 0.  1.
     -611    1    3    3    0    0 -0.47884909361E-01  0.19490019171E-01  0.35635190905E+01  0.35639081264E+01  0.10000000000E-01 0. -1.
      611    1    3    3    0    0  0.85474107945E-02 -0.48061856706E-01  0.28706836227E+01  0.28711160656E+01  0.10000000000E-01 0.  1.
</event>
<event>
 7   0  0.6206631E-02  0.9118800E+02  0.7818608E-02  0.1180000E+00
       11   -1    0    0    0    0  0.00000000000E+00  0.00000000000E+00  0.11999999989E+02  0.12000000000E+02  0.51109989000E-03 0. -1.
     -623   -1    0    0    0    0  0.00000000000E+00  0.00000000000E+00  0.42561509872E-11  0.25126700000E+02  0.25126700000E+02 0.  1.
      622    2    1    2    0    0 -0.21130835690E-02  0.29782316177E-02  0.11986585877E+02  0.11987017382E+02  0.10164346704E+00 0.  0.
       11    1    1    2    0    0  0.31868046702E-02 -0.16272763177E-02  0.12469218071E-01  0.12982541149E-01  0.51109989000E-03 0. -1.
     -623    1    1    2    0    0 -0.10737211012E-02 -0.13509553000E-02  0.94489421047E-03  0.25126700077E+02  0.25126700000E+02 0.  1.
     -611    1    3    3    0    0 -0.21706816551E-01 -0.40437848589E-01  0.38606264640E+01  0.38609122109E+01  0.10000000000E-01 0.  1.
      611    1    3    3    0    0  0.19593732982E-01  0.43416080206E-01  0.81259594128E+01  0.81261051709E+01  0.10000000000E-01 0. -1.
</event>
<event>
 7   0  0.6206631E-02  0.9118800E+02  0.7818608E-02  0.1180000E+00
       11   -1    0    0    0    0  0.00000000000E+00  0.00000000000E+00  0.11999999989E+02  0.12000000000E+02  0.51109989000E-03 0.  1.
     -623   -1    0    0    0    0  0.00000000000E+00  0.00000000000E+00  0.42561509872E-11  0.25126700000E+02  0.25126700000E+02 0. -1.
      622    2    1    2    0    0 -0.37162069860E-01  0.40169266833E-02  0.70712822069E+01  0.70720332111E+01  0.96044440804E-01 0.  0.
       11    1    1    2    0    0  0.29241132979E-01 -0.34000010006E-02  0.49278775643E+01  0.49279655187E+01  0.51109989000E-03 0.  1.
     -623    1    1    2    0    0  0.79209368805E-02 -0.61692568268E-03  0.84021790468E-03  0.25126701270E+02  0.25126700000E+02 0. -1.
     -611    1    3    3    0    0 -0.26266038784E-01 -0.34598931881E-01  0.55793473017E+01  0.55795253655E+01  0.10000000000E-01 0. -1.
      611    1    3    3    0    0 -0.10896031076E-01  0.38615858565E-01  0.14919349052E+01  0.14925078457E+01  0.10000000000E-01 0.  1.
</event>
<event>
 7   0  0.6206631E-02  0.9118800E+02  0.7818608E-02  0.1180000E+00
       11   -1    0    0    0    0  0.00000000000E+00  0.00000000000E+00  0.11999999989E+02  0.12000000000E+02  0.51109989000E-03 0. -1.
     -623   -1    0    0    0    0  0.00000000000E+00  0.00000000000E+00  0.42561509872E-11  0.25126700000E+02  0.25126700000E+02 0.  1.
      622    2    1    2    0    0  0.17999980839E+00  0.11003956478E-01  0.71313299093E+01  0.71360191970E+01  0.18542569042E+00 0.  0.
       11    1    1    2    0    0 -0.17853772486E+00 -0.42917966156E-02  0.48606988610E+01  0.48639785996E+01  0.51109989000E-03 0. -1.
     -623    1    1    2    0    0 -0.14620835355E-02 -0.67121598619E-02  0.79712188696E-02  0.25126702203E+02  0.25126700000E+02 0.  1.
     -611    1    3    3    0    0  0.44541630428E-01  0.18175017662E-01  0.36160535767E+00  0.36492838038E+00  0.10000000000E-01 0. -1.
      611    1    3    3    0    0  0.13545817797E+00 -0.71710611849E-02  0.67697245516E+01  0.67710908166E+01  0.10000000000E-01 0.  1.
</event>
<event>
 7   0  0.6206631E-02  0.9118800E+02  0.7818608E-02  0.1180000E+00
       11   -1    0    0    0    0  0.00000000000E+00  0.00000000000E+00  0.11999999989E+02  0.12000000000E+02  0.51109989000E-03 0. -1.
     -623   -1    0    0    0    0  0.00000000000E+00  0.00000000000E+00  0.42561509872E-11  0.25126700000E+02  0.25126700000E+02 0. -1.
      622    2    1    2    0    0 -0.19755941334E-01 -0.22743649019E-01  0.99986810038E+01  0.99992293892E+01  0.10029452024E+00 0.  0.
       11    1    1    2    0    0  0.17966598396E-01  0.20789393368E-01  0.20005817094E+01  0.20007704603E+01  0.51109989000E-03 0. -1.
     -623    1    1    2    0    0  0.17893429384E-02  0.19542556510E-02  0.73727590391E-03  0.25126700151E+02  0.25126700000E+02 0. -1.
     -611    1    3    3    0    0 -0.68855416589E-02 -0.79571194663E-03  0.93075057587E+01  0.93075137116E+01  0.10000000000E-01 0. -1.
      611    1    3    3    0    0 -0.12870399675E-01 -0.21947937072E-01  0.69117524509E+00  0.69171567754E+00  0.10000000000E-01 0.  1.
</event>
<event>
 7   0  0.6206631E-02  0.9118800E+02  0.7818608E-02  0.1180000E+00
       11   -1    0    0    0    0  0.00000000000E+00  0.00000000000E+00  0.11999999989E+02  0.12000000000E+02  0.51109989000E-03 0. -1.
     -623   -1    0    0    0    0  0.00000000000E+00  0.00000000000E+00  0.42561509872E-11  0.25126700000E+02  0.25126700000E+02 0. -1.
      622    2    1    2    0    0 -0.64823416187E-02 -0.16573212679E-01  0.11519235824E+02  0.11519629287E+02  0.93532084374E-01 0.  0.
       11    1    1    2    0    0 -0.89801114523E-02  0.37031266152E-02  0.48026415945E+00  0.48036265428E+00  0.51109989000E-03 0. -1.
     -623    1    1    2    0    0  0.15462453071E-01  0.12870086063E-01  0.50000572034E-03  0.25126708059E+02  0.25126700000E+02 0. -1.
     -611    1    3    3    0    0  0.42062277908E-02 -0.14460260544E-01  0.42575554754E+00  0.42613915303E+00  0.10000000000E-01 0.  1.
      611    1    3    3    0    0 -0.10688569410E-01 -0.21129521342E-02  0.11093480276E+02  0.11093490134E+02  0.10000000000E-01 0. -1.
</event>
<event>
 7   0  0.6206631E-02  0.9118800E+02  0.7818608E-02  0.1180000E+00
       11   -1    0    0    0    0  0.00000000000E+00  0.00000000000E+00  0.11999999989E+02  0.12000000000E+02  0.51109989000E-03 0.  1.
     -623   -1    0    0    0    0  0.00000000000E+00  0.00000000000E+00  0.42561509872E-11  0.25126700000E+02  0.25126700000E+02 0. -1.
      622    2    1    2    0    0 -0.22135887032E-01  0.11310155102E-01  0.49999780158E+01  0.50013470529E+01  0.11434276305E+00 0.  0.
       11    1    1    2    0    0  0.21032344871E-01 -0.13592814213E-01  0.69986079574E+01  0.69986527794E+01  0.51109989000E-03 0.  1.
     -623    1    1    2    0    0  0.11035421608E-02  0.22826591115E-02  0.14140158847E-02  0.25126700168E+02  0.25126700000E+02 0. -1.
     -611    1    3    3    0    0 -0.63965367413E-01  0.38440343817E-02  0.38405945894E+01  0.38411421667E+01  0.10000000000E-01 0. -1.
      611    1    3    3    0    0  0.41829480381E-01  0.74661207201E-02  0.11593834264E+01  0.11602048861E+01  0.10000000000E-01 0.  1.
</event>
<event>
 7   0  0.6206631E-02  0.9118800E+02  0.7818608E-02  0.1180000E+00
       11   -1    0    0    0    0  0.00000000000E+00  0.00000000000E+00  0.11999999989E+02  0.12000000000E+02  0.51109989000E-03 0. -1.
     -623   -1    0    0    0    0  0.00000000000E+00  0.00000000000E+00  0.42561509872E-11  0.25126700000E+02  0.25126700000E+02 0.  1.
      622    2    1    2    0    0 -0.10662240747E-02 -0.19391275117E-01  0.11218916994E+02  0.11219137245E+02  0.67563780944E-01 0.  0.
       11    1    1    2    0    0  0.12854125783E-01 -0.28142750721E-01  0.78020162722E+00  0.78081501222E+00  0.51109989000E-03 0. -1.
     -623    1    1    2    0    0 -0.11787901708E-01  0.47534025838E-01  0.88136826366E-03  0.25126747742E+02  0.25126700000E+02 0.  1.
     -611    1    3    3    0    0  0.21688923275E-01 -0.17845541301E-02  0.16705631357E+01  0.16707348037E+01  0.10000000000E-01 0. -1.
      611    1    3    3    0    0 -0.22755147349E-01 -0.17606720987E-01  0.95483538579E+01  0.95484024417E+01  0.10000000000E-01 0. -1.
</event>
<event>
 7   0  0.6206631E-02  0.9118800E+02  0.7818608E-02  0.1180000E+00
       11   -1    0    0    0    0  0.00000000000E+00  0.00000000000E+00  0.11999999989E+02  0.12000000000E+02  0.51109989000E-03 0.  1.
     -623   -1    0    0    0    0  0.00000000000E+00  0.00000000000E+00  0.42561509872E-11  0.25126700000E+02  0.25126700000E+02 0. -1.
      622    2    1    2    0    0 -0.17727394205E-01 -0.83125408071E-05  0.98866612386E+01  0.98872338997E+01  0.10492607253E+00 0.  0.
       11    1    1    2    0    0  0.20689960226E-01  0.30642930408E-02  0.21126621375E+01  0.21127657307E+01  0.51109989000E-03 0.  1.
     -623    1    1    2    0    0 -0.29625660215E-02 -0.30559805000E-02  0.67661305022E-03  0.25126700370E+02  0.25126700000E+02 0. -1.
     -611    1    3    3    0    0 -0.17233620212E-01 -0.30194974417E-01  0.12729595277E+01  0.12734734757E+01  0.10000000000E-01 0. -1.
      611    1    3    3    0    0 -0.49377399220E-03  0.30186661876E-01  0.86137017108E+01  0.86137604240E+01  0.10000000000E-01 0.  1.
</event>
<event>
 7   0  0.6206631E-02  0.9118800E+02  0.7818608E-02  0.1180000E+00
       11   -1    0    0    0    0  0.00000000000E+00  0.00000000000E+00  0.11999999989E+02  0.12000000000E+02  0.51109989000E-03 0. -1.
     -623   -1    0    0    0    0  0.00000000000E+00  0.00000000000E+00  0.42561509872E-11  0.25126700000E+02  0.25126700000E+02 0. -1.
      622    2    1    2    0    0  0.21847483068E-01  0.11475957954E+00  0.90304080208E+01  0.90317354997E+01  0.10163681480E+00 0.  0.
       11    1    1    2    0    0 -0.20558955122E-01 -0.11302490846E+00  0.29660402121E+01  0.29682641563E+01  0.51109989000E-03 0. -1.
     -623    1    1    2    0    0 -0.12885279454E-02 -0.17346710792E-02  0.35517562392E-02  0.25126700344E+02  0.25126700000E+02 0. -1.
     -611    1    3    3    0    0 -0.43662471227E-02  0.69457473666E-01  0.22074987598E+01  0.22086181606E+01  0.10000000000E-01 0. -1.
      611    1    3    3    0    0  0.26213730191E-01  0.45302105877E-01  0.68229092609E+01  0.68231173391E+01  0.10000000000E-01 0.  1.
</event>
<event>
 7   0  0.6206631E-02  0.9118800E+02  0.7818608E-02  0.1180000E+00
       11   -1    0    0    0    0  0.00000000000E+00  0.00000000000E+00  0.11999999989E+02  0.12000000000E+02  0.51109989000E-03 0.  1.
     -623   -1    0    0    0    0  0.00000000000E+00  0.00000000000E+00  0.42561509872E-11  0.25126700000E+02  0.25126700000E+02 0. -1.
      622    2    1    2    0    0 -0.57969176927E-02  0.18876279157E-02  0.11986168527E+02  0.11986712483E+02  0.11403087148E+00 0.  0.
       11    1    1    2    0    0 -0.27738281726E-02  0.11604062024E-03  0.12982601449E-01  0.13285960698E-01  0.51109989000E-03 0.  1.
     -623    1    1    2    0    0  0.85707458653E-02 -0.20036685359E-02  0.84886095062E-03  0.25126701556E+02  0.25126700000E+02 0. -1.
     -611    1    3    3    0    0 -0.23863424381E-01  0.25612466670E-01  0.13317893627E+01  0.13322868940E+01  0.10000000000E-01 0. -1.
      611    1    3    3    0    0  0.18066506688E-01 -0.23724838755E-01  0.10654379164E+02  0.10654425589E+02  0.10000000000E-01 0.  1.
</event>
<event>
 7   0  0.6206631E-02  0.9118800E+02  0.7818608E-02  0.1180000E+00
       11   -1    0    0    0    0  0.00000000000E+00  0.00000000000E+00  0.11999999989E+02  0.12000000000E+02  0.51109989000E-03 0. -1.
     -623   -1    0    0    0    0  0.00000000000E+00  0.00000000000E+00  0.42561509872E-11  0.25126700000E+02  0.25126700000E+02 0.  1.
      622    2    1    2    0    0 -0.27220576651E-02 -0.50142534915E-02  0.11940224389E+02  0.11940871937E+02  0.12422408291E+00 0.  0.
       11    1    1    2    0    0  0.13487001388E-03  0.93882544916E-02  0.58375026025E-01  0.59127509663E-01  0.51109989000E-03 0. -1.
     -623    1    1    2    0    0  0.25871876512E-02 -0.43740010001E-02  0.14005744893E-02  0.25126700553E+02  0.25126700000E+02 0.  1.
     -611    1    3    3    0    0  0.44379654755E-01 -0.32225492623E-01  0.86751800685E+01  0.86753592005E+01  0.10000000000E-01 0. -1.
      611    1    3    3    0    0 -0.47101712420E-01  0.27211239132E-01  0.32650443201E+01  0.32655127369E+01  0.10000000000E-01 0.  1.
</event>
<event>
 7   0  0.6206631E-02  0.9118800E+02  0.7818608E-02  0.1180000E+00
       11   -1    0    0    0    0  0.00000000000E+00  0.00000000000E+00  0.11999999989E+02  0.12000000000E+02  0.51109989000E-03 0. -1.
     -623   -1    0    0    0    0  0.00000000000E+00  0.00000000000E+00  0.42561509872E-11  0.25126700000E+02  0.25126700000E+02 0. -1.
      622    2    1    2    0    0  0.10184932183E-01 -0.11573309752E-02  0.11550168424E+02  0.11550560160E+02  0.94574466479E-01 0.  0.
       11    1    1    2    0    0 -0.78795264153E-02 -0.10023627397E-02  0.44936915158E+00  0.44943963698E+00  0.51109989000E-03 0. -1.
     -623    1    1    2    0    0 -0.23054057672E-02  0.21596937149E-02  0.46241399246E-03  0.25126700203E+02  0.25126700000E+02 0. -1.
     -611    1    3    3    0    0 -0.11651174206E-01  0.31974606685E-01  0.89453715670E+01  0.89454418895E+01  0.10000000000E-01 0. -1.
      611    1    3    3    0    0  0.21836106388E-01 -0.33131937660E-01  0.26047968565E+01  0.26051182707E+01  0.10000000000E-01 0.  1.
</event>
<event>
 7   0  0.6206631E-02  0.9118800E+02  0.7818608E-02  0.1180000E+00
       11   -1    0    0    0    0  0.00000000000E+00  0.00000000000E+00  0.11999999989E+02  0.12000000000E+02  0.51109989000E-03 0.  1.
     -623   -1    0    0    0    0  0.00000000000E+00  0.00000000000E+00  0.42561509872E-11  0.25126700000E+02  0.25126700000E+02 0.  1.
      622    2    1    2    0    0 -0.12320855948E-02  0.60757830928E-03  0.11994582896E+02  0.11995019107E+02  0.10228706526E+00 0.  0.
       11    1    1    2    0    0  0.16387315965E-02 -0.31877246031E-03  0.46648531830E-02  0.49808769786E-02  0.51109989000E-03 0.  1.
     -623    1    1    2    0    0 -0.40664600173E-03 -0.28880584897E-03  0.75224023554E-03  0.25126700016E+02  0.25126700000E+02 0.  1.
     -611    1    3    3    0    0  0.12459406118E-01 -0.81826304142E-02  0.11562941274E+02  0.11562955206E+02  0.10000000000E-01 0.  1.
      611    1    3    3    0    0 -0.13691491713E-01  0.87902087235E-02  0.43164162165E+00  0.43206390066E+00  0.10000000000E-01 0. -1.
</event>
<event>
 7   0  0.6206631E-02  0.9118800E+02  0.7818608E-02  0.1180000E+00
       11   -1    0    0    0    0  0.00000000000E+00  0.00000000000E+00  0.11999999989E+02  0.12000000000E+02  0.51109989000E-03 0.  1.
     -623   -1    0    0    0    0  0.00000000000E+00  0.00000000000E+00  0.42561509872E-11  0.25126700000E+02  0.25126700000E+02 0.  1.
      622    2    1    2    0    0 -0.73054751410E-03  0.11544730045E-02  0.11997961522E+02  0.11998376261E+02  0.99751390483E-01 0.  0.
       11    1    1    2    0    0  0.73242121179E-03 -0.12249010087E-03  0.13504675157E-02  0.16237088142E-02  0.51109989000E-03 0.  1.
     -623    1    1    2    0    0 -0.18736976830E-05 -0.10319829036E-02  0.68799958316E-03  0.25126700031E+02  0.25126700000E+02 0.  1.
     -611    1    3    3    0    0  0.19019556421E-01  0.22602245590E-01  0.10711970859E+02  0.10712016257E+02  0.10000000000E-01 0.  1.
      611    1    3    3    0    0 -0.19750103935E-01 -0.21447772585E-01  0.12859906632E+01  0.12863600038E+01  0.10000000000E-01 0. -1.
</event>
<event>
 7   0  0.6206631E-02  0.9118800E+02  0.7818608E-02  0.1180000E+00
       11   -1    0    0    0    0  0.00000000000E+00  0.00000000000E+00  0.11999999989E+02  0.12000000000E+02  0.51109989000E-03 0.  1.
     -623   -1    0    0    0    0  0.00000000000E+00  0.00000000000E+00  0.42561509872E-11  0.25126700000E+02  0.25126700000E+02 0. -1.
      622    2    1    2    0    0  0.49390320354E-02  0.37786320946E-01  0.79583872764E+01  0.79591477958E+01  0.10321527933E+00 0.  0.
       11    1    1    2    0    0  0.57898924206E-01 -0.29184177706E-01  0.40402518574E+01  0.40407721210E+01  0.51109989000E-03 0.  1.
     -623    1    1    2    0    0 -0.62837956241E-01 -0.86021432398E-02  0.13608552963E-02  0.25126780083E+02  0.25126700000E+02 0. -1.
     -611    1    3    3    0    0 -0.24168909321E-01  0.63791525023E-01  0.45494029161E+01  0.45499253168E+01  0.10000000000E-01 0.  1.
      611    1    3    3    0    0  0.29107941357E-01 -0.26005204076E-01  0.34089843603E+01  0.34092224791E+01  0.10000000000E-01 0.  1.
</event>
<event>
 7   0  0.6206631E-02  0.9118800E+02  0.7818608E-02  0.1180000E+00
       11   -1    0    0    0    0  0.00000000000E+00  0.00000000000E+00  0.11999999989E+02  0.12000000000E+02  0.51109989000E-03 0.  1.
     -623   -1    0    0    0    0  0.00000000000E+00  0.00000000000E+00  0.42561509872E-11  0.25126700000E+02  0.25126700000E+02 0.  1.
      622    2    1    2    0    0  0.43805385863E-01 -0.30742384602E-01  0.10912132244E+02  0.10912691725E+02  0.96677721278E-01 0.  0.
       11    1    1    2    0    0 -0.35921103675E-01  0.29612548488E-01  0.10863097826E+01  0.10873069639E+01  0.51109989000E-03 0.  1.
     -623    1    1    2    0    0 -0.78842821888E-02  0.11298361139E-02  0.15579626943E-02  0.25126701311E+02  0.25126700000E+02 0.  1.
     -611    1    3    3    0    0  0.31897539898E-01  0.29572422943E-01  0.32521298336E+01  0.32524360771E+01  0.10000000000E-01 0. -1.
      611    1    3    3    0    0  0.11907845966E-01 -0.60314807545E-01  0.76600024102E+01  0.76602556483E+01  0.10000000000E-01 0.  1.
</event>
<event>
 7   0  0.6206631E-02  0.9118800E+02  0.7818608E-02  0.1180000E+00
       11   -1    0    0    0    0  0.00000000000E+00  0.00000000000E+00  0.11999999989E+02  0.12000000000E+02  0.51109989000E-03 0. -1.
     -623   -1    0    0    0    0  0.00000000000E+00  0.00000000000E+00  0.42561509872E-11  0.25126700000E+02  0.25126700000E+02 0. -1.
      622    2    1    2    0    0  0.42528743271E-01 -0.83656056093E-02  0.11692313558E+02  0.11693077262E+02  0.12641533574E+00 0.  0.
       11    1    1    2    0    0 -0.27861597073E-01 -0.97443628254E-02  0.30548877509E+00  0.30691183445E+00  0.51109989000E-03 0. -1.
     -623    1    1    2    0    0 -0.14667146198E-01  0.18109968435E-01  0.21976556523E-02  0.25126710903E+02  0.25126700000E+02 0. -1.
     -611    1    3    3    0    0  0.20518487039E-01  0.51861181665E-01  0.79428515868E+01  0.79430536898E+01  0.10000000000E-01 0. -1.
      611    1    3    3    0    0  0.22010256232E-01 -0.60226787275E-01  0.37494619716E+01  0.37500235724E+01  0.10000000000E-01 0.  1.
</event>
<event>
 7   0  0.6206631E-02  0.9118800E+02  0.7818608E-02  0.1180000E+00
       11   -1    0    0    0    0  0.00000000000E+00  0.00000000000E+00  0.11999999989E+02  0.12000000000E+02  0.51109989000E-03 0.  1.
     -623   -1    0    0    0    0  0.00000000000E+00  0.00000000000E+00  0.42561509872E-11  0.25126700000E+02  0.25126700000E+02 0.  1.
      622    2    1    2    0    0 -0.97633587149E-01  0.52085682366E-01  0.10574752066E+02  0.10575849584E+02  0.10472794551E+00 0.  0.
       11    1    1    2    0    0  0.16965951495E+00 -0.21238645076E-01  0.14137231822E+01  0.14240256065E+01  0.51109989000E-03 0.  1.
     -623    1    1    2    0    0 -0.72025927802E-01 -0.30847037289E-01  0.11524741097E-01  0.25126824809E+02  0.25126700000E+02 0.  1.
     -611    1    3    3    0    0 -0.18783555402E-01 -0.23388718835E-01  0.10742499774E+01  0.10747152497E+01  0.10000000000E-01 0. -1.
      611    1    3    3    0    0 -0.78850031747E-01  0.75474401201E-01  0.95005020885E+01  0.95011343347E+01  0.10000000000E-01 0.  1.
</event>
<event>
 7   0  0.6206631E-02  0.9118800E+02  0.7818608E-02  0.1180000E+00
       11   -1    0    0    0    0  0.00000000000E+00  0.00000000000E+00  0.11999999989E+02  0.12000000000E+02  0.51109989000E-03 0. -1.
     -623   -1    0    0    0    0  0.00000000000E+00  0.00000000000E+00  0.42561509872E-11  0.25126700000E+02  0.25126700000E+02 0. -1.
      622    2    1    2    0    0  0.16534997361E-02  0.69365390701E-03  0.11996519406E+02  0.11997021452E+02  0.10973895113E+00 0.  0.
       11    1    1    2    0    0  0.18647311821E-02  0.22639243319E-02  0.63735932321E-04  0.29778954263E-02  0.51109989000E-03 0. -1.
     -623    1    1    2    0    0 -0.35182309183E-02 -0.29575782389E-02  0.34168469488E-02  0.25126700653E+02  0.25126700000E+02 0. -1.
     -611    1    3    3    0    0 -0.27824979108E-01  0.32129380222E-01  0.95647188817E+01  0.95648185458E+01  0.10000000000E-01 0. -1.
      611    1    3    3    0    0  0.29478478844E-01 -0.31435726315E-01  0.24318005245E+01  0.24322029061E+01  0.10000000000E-01 0.  1.
</event>
<event>
 7   0  0.6206631E-02  0.9118800E+02  0.7818608E-02  0.1180000E+00
       11   -1    0    0    0    0  0.00000000000E+00  0.00000000000E+00  0.11999999989E+02  0.12000000000E+02  0.51109989000E-03 0.  1.
     -623   -1    0    0    0    0  0.00000000000E+00  0.00000000000E+00  0.42561509872E-11  0.25126700000E+02  0.25126700000E+02 0. -1.
      622    2    1    2    0    0  0.52743983421E-01 -0.14364671066E-01  0.90860215074E+01  0.90866578960E+01  0.92610011576E-01 0.  0.
       11    1    1    2    0    0 -0.54612777572E-01  0.12465330991E-01  0.29128032942E+01  0.29133419353E+01  0.51109989000E-03 0.  1.
     -623    1    1    2    0    0  0.18687941515E-02  0.18993400751E-02  0.11751875554E-02  0.25126700169E+02  0.25126700000E+02 0. -1.
     -611    1    3    3    0    0  0.49274445560E-01 -0.40612738325E-01  0.80210288542E+01  0.80212892508E+01  0.10000000000E-01 0.  1.
      611    1    3    3    0    0  0.34695378611E-02  0.26248067259E-01  0.10649926532E+01  0.10653686451E+01  0.10000000000E-01 0. -1.
</event>
<event>
 7   0  0.6206631E-02  0.9118800E+02  0.7818608E-02  0.1180000E+00
       11   -1    0    0    0    0  0.00000000000E+00  0.00000000000E+00  0.11999999989E+02  0.12000000000E+02  0.51109989000E-03 0. -1.
     -623   -1    0    0    0    0  0.00000000000E+00  0.00000000000E+00  0.42561509872E-11  0.25126700000E+02  0.25126700000E+02 0.  1.
      622    2    1    2    0    0 -0.10428493899E-01  0.67706581839E-01  0.10348343714E+02  0.10349355718E+02  0.12748816188E+00 0.  0.
       11    1    1    2    0    0  0.21214148114E-01 -0.55141551634E-01  0.16495809637E+01  0.16506387394E+01  0.51109989000E-03 0. -1.
     -623    1    1    2    0    0 -0.10785654214E-01 -0.12565030205E-01  0.20753115756E-02  0.25126705542E+02  0.25126700000E+02 0.  1.
     -611    1    3    3    0    0 -0.81358261981E-02  0.80333374154E-01  0.10155791936E+02  0.10156117836E+02  0.10000000000E-01 0. -1.
      611    1    3    3    0    0 -0.22926677012E-02 -0.12626792315E-01  0.19255177765E+00  0.19323788263E+00  0.10000000000E-01 0.  1.
</event>
<event>
 7   0  0.6206631E-02  0.9118800E+02  0.7818608E-02  0.1180000E+00
       11   -1    0    0    0    0  0.00000000000E+00  0.00000000000E+00  0.11999999989E+02  0.12000000000E+02  0.51109989000E-03 0. -1.
     -623   -1    0    0    0    0  0.00000000000E+00  0.00000000000E+00  0.42561509872E-11  0.25126700000E+02  0.25126700000E+02 0.  1.
      622    2    1    2    0    0 -0.15530566563E-02  0.96073320379E-03  0.11991077106E+02  0.11991610070E+02  0.11304230168E+00 0.  0.
       11    1    1    2    0    0  0.82921193748E-03 -0.51169251505E-03  0.83174467614E-02  0.83899085487E-02  0.51109989000E-03 0. -1.
     -623    1    1    2    0    0  0.72384471878E-03 -0.44904068874E-03  0.60543614259E-03  0.25126700022E+02  0.25126700000E+02 0.  1.
     -611    1    3    3    0    0 -0.27071931372E-03 -0.60055308183E-02  0.12899135436E+00  0.12951798790E+00  0.10000000000E-01 0. -1.
      611    1    3    3    0    0 -0.12823373425E-02  0.69662640221E-02  0.11862085752E+02  0.11862092082E+02  0.10000000000E-01 0. -1.
</event>
<event>
 7   0  0.6206631E-02  0.9118800E+02  0.7818608E-02  0.1180000E+00
       11   -1    0    0    0    0  0.00000000000E+00  0.00000000000E+00  0.11999999989E+02  0.12000000000E+02  0.51109989000E-03 0. -1.
     -623   -1    0    0    0    0  0.00000000000E+00  0.00000000000E+00  0.42561509872E-11  0.25126700000E+02  0.25126700000E+02 0.  1.
      622    2    1    2    0    0 -0.17770307112E-02 -0.35751464522E-03  0.11988143404E+02  0.11988585937E+02  0.10299134292E+00 0.  0.
       11    1    1    2    0    0  0.14238466376E-02 -0.28377537717E-02  0.10951454462E-01  0.11413840881E-01  0.51109989000E-03 0. -1.
     -623    1    1    2    0    0  0.35318407355E-03  0.31952684169E-02  0.90513083983E-03  0.25126700222E+02  0.25126700000E+02 0.  1.
     -611    1    3    3    0    0  0.40931079777E-02  0.11726325317E-01  0.11663456585E+02  0.11663467485E+02  0.10000000000E-01 0. -1.
      611    1    3    3    0    0 -0.58701386889E-02 -0.12083839962E-01  0.32468681880E+00  0.32511845229E+00  0.10000000000E-01 0. -1.
</event>
<event>
 7   0  0.6206631E-02  0.9118800E+02  0.7818608E-02  0.1180000E+00
       11   -1    0    0    0    0  0.00000000000E+00  0.00000000000E+00  0.11999999989E+02  0.12000000000E+02  0.51109989000E-03 0. -1.
     -623   -1    0    0    0    0  0.00000000000E+00  0.00000000000E+00  0.42561509872E-11  0.25126700000E+02  0.25126700000E+02 0. -1.
      622    2    1    2    0    0  0.12763521756E-01  0.29909077251E-01  0.11701192331E+02  0.11701670021E+02  0.10060749457E+00 0.  0.
       11    1    1    2    0    0 -0.49492334463E-02 -0.32606565805E-01  0.29649950621E+00  0.29832851263E+00  0.51109989000E-03 0. -1.
     -623    1    1    2    0    0 -0.78142883099E-02  0.26974885539E-02  0.23081521007E-02  0.25126701466E+02  0.25126700000E+02 0. -1.
     -611    1    3    3    0    0  0.38262935576E-01  0.15046192063E-02  0.19690355848E+01  0.19694332815E+01  0.10000000000E-01 0. -1.
      611    1    3    3    0    0 -0.25499413820E-01  0.28404458045E-01  0.97321567460E+01  0.97322367400E+01  0.10000000000E-01 0. -1.
</event>
<event>
 7   0  0.6206631E-02  0.9118800E+02  0.7818608E-02  0.1180000E+00
       11   -1    0    0    0    0  0.00000000000E+00  0.00000000000E+00  0.11999999989E+02  0.12000000000E+02  0.51109989000E-03 0.  1.
     -623   -1    0    0    0    0  0.00000000000E+00  0.00000000000E+00  0.42561509872E-11  0.25126700000E+02  0.25126700000E+02 0.  1.
      622    2    1    2    0    0  0.40877773904E-01 -0.33684547943E-01  0.69515006145E+01  0.69519438188E+01  0.57934662200E-01 0.  0.
       11    1    1    2    0    0 -0.52058255560E-01  0.11455946531E-01  0.50477623910E+01  0.50480438506E+01  0.51109989000E-03 0.  1.
     -623    1    1    2    0    0  0.11180481657E-01  0.22228601411E-01  0.73698369011E-03  0.25126712331E+02  0.25126700000E+02 0.  1.
     -611    1    3    3    0    0 -0.29050681611E-02 -0.31693602807E-01  0.31987722761E+01  0.31989462325E+01  0.10000000000E-01 0. -1.
      611    1    3    3    0    0  0.43782842065E-01 -0.19909451364E-02  0.37527283383E+01  0.37529975863E+01  0.10000000000E-01 0.  1.
</event>
<event>
 7   0  0.6206631E-02  0.9118800E+02  0.7818608E-02  0.1180000E+00
       11   -1    0    0    0    0  0.00000000000E+00  0.00000000000E+00  0.11999999989E+02  0.12000000000E+02  0.51109989000E-03 0.  1.
     -623   -1    0    0    0    0  0.00000000000E+00  0.00000000000E+00  0.42561509872E-11  0.25126700000E+02  0.25126700000E+02 0. -1.
      622    2    1    2    0    0 -0.42215391282E-02  0.23115254490E-03  0.78028043241E+01  0.78030610624E+01  0.63156543477E-01 0.  0.
       11    1    1    2    0    0  0.15374577686E-02  0.64396716697E-02  0.41969326541E+01  0.41969379073E+01  0.51109989000E-03 0.  1.
     -623    1    1    2    0    0  0.26840813596E-02 -0.66708242146E-02  0.26301085836E-03  0.25126701030E+02  0.25126700000E+02 0. -1.
     -611    1    3    3    0    0  0.28518989893E-02 -0.19160454620E-01  0.10922260001E+01  0.10924435416E+01  0.10000000000E-01 0.  1.
      611    1    3    3    0    0 -0.70734381175E-02  0.19391607165E-01  0.67105783240E+01  0.67106175208E+01  0.10000000000E-01 0.  1.
</event>
<event>
 7   0  0.6206631E-02  0.9118800E+02  0.7818608E-02  0.1180000E+00
       11   -1    0    0    0    0  0.00000000000E+00  0.00000000000E+00  0.11999999989E+02  0.12000000000E+02  0.51109989000E-03 0.  1.
     -623   -1    0    0    0    0  0.00000000000E+00  0.00000000000E+00  0.42561509872E-11  0.25126700000E+02  0.25126700000E+02 0.  1.
      622    2    1    2    0    0 -0.13445106557E-02  0.25152892343E-02  0.11984007734E+02  0.11984159589E+02  0.60262322628E-01 0.  0.
       11    1    1    2    0    0 -0.26447720964E-02  0.24323524565E-03  0.15607321646E-01  0.15839939864E-01  0.51109989000E-03 0.  1.
     -623    1    1    2    0    0  0.39892827521E-02 -0.27585244800E-02  0.38493321838E-03  0.25126700471E+02  0.25126700000E+02 0.  1.
     -611    1    3    3    0    0 -0.44338985129E-02 -0.21574322899E-01  0.91028589806E+01  0.91028911194E+01  0.10000000000E-01 0.  1.
      611    1    3    3    0    0  0.30893878572E-02  0.24089612134E-01  0.28811487536E+01  0.28812684697E+01  0.10000000000E-01 0. -1.
</event>
<event>
 7   0  0.6206631E-02  0.9118800E+02  0.7818608E-02  0.1180000E+00
       11   -1    0    0    0    0  0.00000000000E+00  0.00000000000E+00  0.11999999989E+02  0.12000000000E+02  0.51109989000E-03 0.  1.
     -623   -1    0    0    0    0  0.00000000000E+00  0.00000000000E+00  0.42561509872E-11  0.25126700000E+02  0.25126700000E+02 0. -1.
      622    2    1    2    0    0  0.16383776991E-01 -0.50001304566E-01  0.79295298943E+01  0.79303953899E+01  0.10468112082E+00 0.  0.
       11    1    1    2    0    0 -0.27825470699E-01  0.23853793591E-01  0.40694233066E+01  0.40695883784E+01  0.51109989000E-03 0.  1.
     -623    1    1    2    0    0  0.11441693708E-01  0.26147510975E-01  0.10467882933E-02  0.25126716232E+02  0.25126700000E+02 0. -1.
     -611    1    3    3    0    0  0.70805633365E-02 -0.23353950267E-01  0.73821344489E+01  0.73821815586E+01  0.10000000000E-01 0.  1.
      611    1    3    3    0    0  0.93032136545E-02 -0.26647354299E-01  0.54739544533E+00  0.54821383131E+00  0.10000000000E-01 0.  1.
</event>
<event>
 7   0  0.6206631E-02  0.9118800E+02  0.7818608E-02  0.1180000E+00
       11   -1    0    0    0    0  0.00000000000E+00  0.00000000000E+00  0.11999999989E+02  0.12000000000E+02  0.51109989000E-03 0. -1.
     -623   -1    0    0    0    0  0.00000000000E+00  0.00000000000E+00  0.42561509872E-11  0.25126700000E+02  0.25126700000E+02 0. -1.
      622    2    1    2    0    0 -0.12426325176E-01  0.21116349567E-01  0.11778426718E+02  0.11778837923E+02  0.95323402362E-01 0.  0.
       11    1    1    2    0    0  0.14031850233E-01 -0.19005874852E-01  0.21989588479E+00  0.22116188069E+00  0.51109989000E-03 0. -1.
     -623    1    1    2    0    0 -0.16055250576E-02 -0.21104747151E-02  0.16773859282E-02  0.25126700196E+02  0.25126700000E+02 0. -1.
     -611    1    3    3    0    0  0.28830178101E-02  0.15546917256E-01  0.44276510977E+00  0.44316019773E+00  0.10000000000E-01 0. -1.
      611    1    3    3    0    0 -0.15309342986E-01  0.55694323110E-02  0.11335661609E+02  0.11335677726E+02  0.10000000000E-01 0. -1.
</event>
<event>
 7   0  0.6206631E-02  0.9118800E+02  0.7818608E-02  0.1180000E+00
       11   -1    0    0    0    0  0.00000000000E+00  0.00000000000E+00  0.11999999989E+02  0.12000000000E+02  0.51109989000E-03 0. -1.
     -623   -1    0    0    0    0  0.00000000000E+00  0.00000000000E+00  0.42561509872E-11  0.25126700000E+02  0.25126700000E+02 0. -1.
      622    2    1    2    0    0  0.18139043575E-01  0.33514856166E-01  0.11323784901E+02  0.11324090447E+02  0.73943874453E-01 0.  0.
       11    1    1    2    0    0  0.77962919618E-02 -0.96955098260E-01  0.66877840336E+00  0.67581498006E+00  0.51109989000E-03 0. -1.
     -623    1    1    2    0    0 -0.25935335536E-01  0.63440242095E-01  0.74366845195E-02  0.25126794573E+02  0.25126700000E+02 0. -1.
     -611    1    3    3    0    0  0.30861026086E-01  0.42586155472E-01  0.10289011214E+02  0.10289150487E+02  0.10000000000E-01 0. -1.
      611    1    3    3    0    0 -0.12721982511E-01 -0.90712993061E-02  0.10347736869E+01  0.10349399598E+01  0.10000000000E-01 0.  1.
</event>
<event>
 7   0  0.6206631E-02  0.9118800E+02  0.7818608E-02  0.1180000E+00
       11   -1    0    0    0    0  0.00000000000E+00  0.00000000000E+00  0.11999999989E+02  0.12000000000E+02  0.51109989000E-03 0. -1.
     -623   -1    0    0    0    0  0.00000000000E+00  0.00000000000E+00  0.42561509872E-11  0.25126700000E+02  0.25126700000E+02 0.  1.
      622    2    1    2    0    0  0.35072908950E-03  0.52200540343E-03  0.11989386697E+02  0.11989887670E+02  0.10960190889E+00 0.  0.
       11    1    1    2    0    0  0.26734670699E-04 -0.88467053906E-03  0.10060536784E-01  0.10112318242E-01  0.51109989000E-03 0. -1.
     -623    1    1    2    0    0 -0.37746376020E-03  0.36266513562E-03  0.55275531564E-03  0.25126700012E+02  0.25126700000E+02 0.  1.
     -611    1    3    3    0    0 -0.25010614050E-01  0.44006355530E-01  0.39470463212E+01  0.39473835324E+01  0.10000000000E-01 0.  1.
      611    1    3    3    0    0  0.25361343139E-01 -0.43484350126E-01  0.80423403758E+01  0.80425041378E+01  0.10000000000E-01 0. -1.
</event>
<event>
 7   0  0.6206631E-02  0.9118800E+02  0.7818608E-02  0.1180000E+00
       11   -1    0    0    0    0  0.00000000000E+00  0.00000000000E+00  0.11999999989E+02  0.12000000000E+02  0.51109989000E-03 0.  1.
     -623   -1    0    0    0    0  0.00000000000E+00  0.00000000000E+00  0.42561509872E-11  0.25126700000E+02  0.25126700000E+02 0. -1.
      622    2    1    2    0    0 -0.44897146666E-01  0.97935774442E-02  0.77799918024E+01  0.77808017271E+01  0.10242755636E+00 0.  0.
       11    1    1    2    0    0  0.42200461553E-01 -0.98395897847E-02  0.42189755519E+01  0.42191981069E+01  0.51109989000E-03 0.  1.
     -623    1    1    2    0    0  0.26966851123E-02  0.46012340535E-04  0.10326348638E-02  0.25126700166E+02  0.25126700000E+02 0. -1.
     -611    1    3    3    0    0  0.14227637252E-01  0.19237252593E-01  0.53126725042E+01  0.53127357957E+01  0.10000000000E-01 0.  1.
      611    1    3    3    0    0 -0.59124783918E-01 -0.94436751488E-02  0.24673192981E+01  0.24680659315E+01  0.10000000000E-01 0. -1.
</event>
<event>
 7   0  0.6206631E-02  0.9118800E+02  0.7818608E-02  0.1180000E+00
       11   -1    0    0    0    0  0.00000000000E+00  0.00000000000E+00  0.11999999989E+02  0.12000000000E+02  0.51109989000E-03 0. -1.
     -623   -1    0    0    0    0  0.00000000000E+00  0.00000000000E+00  0.42561509872E-11  0.25126700000E+02  0.25126700000E+02 0.  1.
      622    2    1    2    0    0 -0.36929852381E-02  0.51293717078E-02  0.10371912336E+02  0.10372229197E+02  0.80827235687E-01 0.  0.
       11    1    1    2    0    0  0.37140905598E-01  0.13839638085E-01  0.16272586502E+01  0.16277413672E+01  0.51109989000E-03 0. -1.
     -623    1    1    2    0    0 -0.33447920360E-01 -0.18969009793E-01  0.82900243999E-03  0.25126729436E+02  0.25126700000E+02 0.  1.
     -611    1    3    3    0    0  0.29621707650E-01  0.15614701713E-01  0.26371000624E+01  0.26373316067E+01  0.10000000000E-01 0. -1.
      611    1    3    3    0    0 -0.33314692888E-01 -0.10485330005E-01  0.77348122740E+01  0.77348975899E+01  0.10000000000E-01 0.  1.
</event>
<event>
 7   0  0.6206631E-02  0.9118800E+02  0.7818608E-02  0.1180000E+00
       11   -1    0    0    0    0  0.00000000000E+00  0.00000000000E+00  0.11999999989E+02  0.12000000000E+02  0.51109989000E-03 0.  1.
     -623   -1    0    0    0    0  0.00000000000E+00  0.00000000000E+00  0.42561509872E-11  0.25126700000E+02  0.25126700000E+02 0.  1.
      622    2    1    2    0    0 -0.24932591529E-03 -0.28628315676E-03  0.11998382093E+02  0.11999296846E+02  0.14816138822E+00 0.  0.
       11    1    1    2    0    0 -0.19469593704E-03 -0.40879064111E-03 -0.16756539375E-03  0.70307725739E-03  0.51109989000E-03 0.  1.
     -623    1    1    2    0    0  0.44402185233E-03  0.69507379787E-03  0.17854614224E-02  0.25126700077E+02  0.25126700000E+02 0.  1.
     -611    1    3    3    0    0  0.45576731782E-01  0.56675641393E-01  0.53016934068E+01  0.53022016509E+01  0.10000000000E-01 0. -1.
      611    1    3    3    0    0 -0.45826057698E-01 -0.56961924550E-01  0.66966886863E+01  0.66970951949E+01  0.10000000000E-01 0.  1.
</event>
<event>
 7   0  0.6206631E-02  0.9118800E+02  0.7818608E-02  0.1180000E+00
       11   -1    0    0    0    0  0.00000000000E+00  0.00000000000E+00  0.11999999989E+02  0.12000000000E+02  0.51109989000E-03 0. -1.
     -623   -1    0    0    0    0  0.00000000000E+00  0.00000000000E+00  0.42561509872E-11  0.25126700000E+02  0.25126700000E+02 0. -1.
      622    2    1    2    0    0 -0.34470231374E-02 -0.31384263091E-02  0.11993429695E+02  0.11994312244E+02  0.14542572523E+00 0.  0.
       11    1    1    2    0    0 -0.31487222062E-02  0.45371142764E-02  0.12541121132E-02  0.56862885805E-02  0.51109989000E-03 0. -1.
     -623    1    1    2    0    0  0.65957453436E-02 -0.13986879674E-02  0.53161822418E-02  0.25126701467E+02  0.25126700000E+02 0. -1.
     -611    1    3    3    0    0 -0.12228887477E-01  0.41184086788E-01  0.12421325665E+01  0.12429155191E+01  0.10000000000E-01 0.  1.
      611    1    3    3    0    0  0.87818643399E-02 -0.44322513097E-01  0.10751297128E+02  0.10751396725E+02  0.10000000000E-01 0. -1.
</event>
<event>
 7   0  0.6206631E-02  0.9118800E+02  0.7818608E-02  0.1180000E+00
       11   -1    0    0    0    0  0.00000000000E+00  0.00000000000E+00  0.11999999989E+02  0.12000000000E+02  0.51109989000E-03 0.  1.
     -623   -1    0    0    0    0  0.00000000000E+00  0.00000000000E+00  0.42561509872E-11  0.25126700000E+02  0.25126700000E+02 0. -1.
      622    2    1    2    0    0  0.83817146610E-02 -0.17959891726E-01  0.11413691526E+02  0.11413908202E+02  0.67478756676E-01 0.  0.
       11    1    1    2    0    0 -0.80202935230E-02 -0.45271869642E-02  0.58600914177E+00  0.58608173150E+00  0.51109989000E-03 0.  1.
     -623    1    1    2    0    0 -0.36142113808E-03  0.22487078690E-01  0.29932162222E-03  0.25126710067E+02  0.25126700000E+02 0. -1.
     -611    1    3    3    0    0  0.22008970047E-01 -0.26966858155E-01  0.10210651133E+02  0.10210715360E+02  0.10000000000E-01 0.  1.
      611    1    3    3    0    0 -0.13627255386E-01  0.90069664286E-02  0.12030403927E+01  0.12031928416E+01  0.10000000000E-01 0.  1.
</event>
<event>
 7   0  0.6206631E-02  0.9118800E+02  0.7818608E-02  0.1180000E+00
       11   -1    0    0    0    0  0.00000000000E+00  0.00000000000E+00  0.11999999989E+02  0.12000000000E+02  0.51109989000E-03 0. -1.
     -623   -1    0    0    0    0  0.00000000000E+00  0.00000000000E+00  0.42561509872E-11  0.25126700000E+02  0.25126700000E+02 0.  1.
      622    2    1    2    0    0 -0.87389376936E-02 -0.24916575485E-01  0.11667390332E+02  0.11667906751E+02  0.10655325533E+00 0.  0.
       11    1    1    2    0    0  0.66508976403E-02  0.30511526797E-01  0.33062055781E+00  0.33209246029E+00  0.51109989000E-03 0. -1.
     -623    1    1    2    0    0  0.20880400533E-02 -0.55949513119E-02  0.19890994324E-02  0.25126700788E+02  0.25126700000E+02 0.  1.
     -611    1    3    3    0    0 -0.51984779843E-01  0.91385795545E-02  0.59757404214E+01  0.59759818871E+01  0.10000000000E-01 0. -1.
      611    1    3    3    0    0  0.43245842149E-01 -0.34055155040E-01  0.56916499105E+01  0.56919248643E+01  0.10000000000E-01 0.  1.
</event>
<event>
 7   0  0.6206631E-02  0.9118800E+02  0.7818608E-02  0.1180000E+00
       11   -1    0    0    0    0  0.00000000000E+00  0.00000000000E+00  0.11999999989E+02  0.12000000000E+02  0.51109989000E-03 0. -1.
     -623   -1    0    0    0    0  0.00000000000E+00  0.00000000000E+00  0.42561509872E-11  0.25126700000E+02  0.25126700000E+02 0.  1.
      622    2    1    2    0    0  0.19073084415E-02 -0.22289588725E-01  0.76652438143E+01  0.76659318206E+01  0.10023712847E+00 0.  0.
       11    1    1    2    0    0 -0.14142127419E-01  0.22453517374E-01  0.43339839218E+01  0.43340651882E+01  0.51109989000E-03 0. -1.
     -623    1    1    2    0    0  0.12234818978E-01 -0.16392864890E-03  0.77225298075E-03  0.25126702991E+02  0.25126700000E+02 0.  1.
     -611    1    3    3    0    0 -0.14164254662E-02 -0.55014340609E-01  0.63243660516E+01  0.63246133904E+01  0.10000000000E-01 0. -1.
      611    1    3    3    0    0  0.33237339077E-02  0.32724751884E-01  0.13408777628E+01  0.13413184302E+01  0.10000000000E-01 0.  1.
</event>
<event>
 7   0  0.6206631E-02  0.9118800E+02  0.7818608E-02  0.1180000E+00
       11   -1    0    0    0    0  0.00000000000E+00  0.00000000000E+00  0.11999999989E+02  0.12000000000E+02  0.51109989000E-03 0.  1.
     -623   -1    0    0    0    0  0.00000000000E+00  0.00000000000E+00  0.42561509872E-11  0.25126700000E+02  0.25126700000E+02 0.  1.
      622    2    1    2    0    0  0.30066443658E-02 -0.54630770321E-02  0.11974938399E+02  0.11975095393E+02  0.61001062709E-01 0.  0.
       11    1    1    2    0    0 -0.10694885541E-02  0.56275492573E-02  0.24231398171E-01  0.24904517600E-01  0.51109989000E-03 0.  1.
     -623    1    1    2    0    0 -0.19371558117E-02 -0.16447222522E-03  0.83019160736E-03  0.25126700089E+02  0.25126700000E+02 0.  1.
     -611    1    3    3    0    0 -0.20041107468E-03  0.11382181883E-01  0.82387932023E+00  0.82401864574E+00  0.10000000000E-01 0.  1.
      611    1    3    3    0    0  0.32070554405E-02 -0.16845258915E-01  0.11151059079E+02  0.11151076748E+02  0.10000000000E-01 0.  1.
</event>
<event>
 7   0  0.6206631E-02  0.9118800E+02  0.7818608E-02  0.1180000E+00
       11   -1    0    0    0    0  0.00000000000E+00  0.00000000000E+00  0.11999999989E+02  0.12000000000E+02  0.51109989000E-03 0. -1.
     -623   -1    0    0    0    0  0.00000000000E+00  0.00000000000E+00  0.42561509872E-11  0.25126700000E+02  0.25126700000E+02 0. -1.
      622    2    1    2    0    0 -0.16393671935E-01 -0.33205782297E-02  0.11818496395E+02  0.11819783633E+02  0.17363265231E+00 0.  0.
       11    1    1    2    0    0  0.11556005432E-01 -0.23207074473E-02  0.17982862594E+00  0.18021521266E+00  0.51109989000E-03 0. -1.
     -623    1    1    2    0    0  0.48376665031E-02  0.56412856771E-02  0.16749679816E-02  0.25126701155E+02  0.25126700000E+02 0. -1.
     -611    1    3    3    0    0 -0.18663847329E-01 -0.83653137667E-01  0.44065058883E+01  0.44073507156E+01  0.10000000000E-01 0.  1.
      611    1    3    3    0    0  0.22701753940E-02  0.80332559437E-01  0.74119905068E+01  0.74124329169E+01  0.10000000000E-01 0. -1.
</event>
<event>
 7   0  0.6206631E-02  0.9118800E+02  0.7818608E-02  0.1180000E+00
       11   -1    0    0    0    0  0.00000000000E+00  0.00000000000E+00  0.11999999989E+02  0.12000000000E+02  0.51109989000E-03 0.  1.
     -623   -1    0    0    0    0  0.00000000000E+00  0.00000000000E+00  0.42561509872E-11  0.25126700000E+02  0.25126700000E+02 0. -1.
      622    2    1    2    0    0  0.10457149687E-02 -0.11404480778E-03  0.11983787764E+02  0.11984134166E+02  0.91112107542E-01 0.  0.
       11    1    1    2    0    0 -0.92206630426E-03  0.53571220500E-03  0.15821695993E-01  0.15865827463E-01  0.51109989000E-03 0.  1.
     -623    1    1    2    0    0 -0.12364866443E-03 -0.42166739723E-03  0.39052890678E-03  0.25126700007E+02  0.25126700000E+02 0. -1.
     -611    1    3    3    0    0 -0.91047198691E-02 -0.36564773380E-01  0.90674443043E+01  0.90675281136E+01  0.10000000000E-01 0.  1.
      611    1    3    3    0    0  0.10150434838E-01  0.36450728573E-01  0.29163434599E+01  0.29166060521E+01  0.10000000000E-01 0. -1.
</event>
<event>
 7   0  0.6206631E-02  0.9118800E+02  0.7818608E-02  0.1180000E+00
       11   -1    0    0    0    0  0.00000000000E+00  0.00000000000E+00  0.11999999989E+02  0.12000000000E+02  0.51109989000E-03 0.  1.
     -623   -1    0    0    0    0  0.00000000000E+00  0.00000000000E+00  0.42561509872E-11  0.25126700000E+02  0.25126700000E+02 0.  1.
      622    2    1    2    0    0 -0.30649858938E-01  0.23669677956E-01  0.11943021053E+02  0.11943863455E+02  0.13646495060E+00 0.  0.
       11    1    1    2    0    0  0.84963084393E-02 -0.39503076729E-01  0.38935674264E-01  0.56115312363E-01  0.51109989000E-03 0.  1.
     -623    1    1    2    0    0  0.22153550498E-01  0.15833398773E-01  0.18043261936E-01  0.25126721233E+02  0.25126700000E+02 0.  1.
     -611    1    3    3    0    0  0.10627348610E-01  0.51668032024E-02  0.10652361026E+02  0.10652372274E+02  0.10000000000E-01 0.  1.
      611    1    3    3    0    0 -0.41277207548E-01  0.18502874754E-01  0.12906600270E+01  0.12914911806E+01  0.10000000000E-01 0.  1.
</event>
<event>
 7   0  0.6206631E-02  0.9118800E+02  0.7818608E-02  0.1180000E+00
       11   -1    0    0    0    0  0.00000000000E+00  0.00000000000E+00  0.11999999989E+02  0.12000000000E+02  0.51109989000E-03 0.  1.
     -623   -1    0    0    0    0  0.00000000000E+00  0.00000000000E+00  0.42561509872E-11  0.25126700000E+02  0.25126700000E+02 0. -1.
      622    2    1    2    0    0  0.53436005273E-02 -0.61383826664E-02  0.11981637848E+02  0.11982038186E+02  0.97608069980E-01 0.  0.
       11    1    1    2    0    0 -0.29658829831E-02  0.43427205778E-02  0.17166901375E-01  0.17961609334E-01  0.51109989000E-03 0.  1.
     -623    1    1    2    0    0 -0.23777175442E-02  0.17956620886E-02  0.11952401282E-02  0.25126700205E+02  0.25126700000E+02 0. -1.
     -611    1    3    3    0    0  0.18678725711E-01 -0.29186544380E-01  0.10792301742E+02  0.10792362005E+02  0.10000000000E-01 0.  1.
      611    1    3    3    0    0 -0.13335125184E-01  0.23048161714E-01  0.11893361055E+01  0.11896761808E+01  0.10000000000E-01 0. -1.
</event>
<event>
 7   0  0.6206631E-02  0.9118800E+02  0.7818608E-02  0.1180000E+00
       11   -1    0    0    0    0  0.00000000000E+00  0.00000000000E+00  0.11999999989E+02  0.12000000000E+02  0.51109989000E-03 0.  1.
     -623   -1    0    0    0    0  0.00000000000E+00  0.00000000000E+00  0.42561509872E-11  0.25126700000E+02  0.25126700000E+02 0.  1.
      622    2    1    2    0    0 -0.13937689202E-02  0.58767406660E-03  0.11985528478E+02  0.11986158603E+02  0.12289367729E+00 0.  0.
       11    1    1    2    0    0 -0.95021112264E-03  0.17699669790E-02  0.13685062686E-01  0.13841164986E-01  0.51109989000E-03 0.  1.
     -623    1    1    2    0    0  0.23439800428E-02 -0.23576410456E-02  0.78644802229E-03  0.25126700232E+02  0.25126700000E+02 0.  1.
     -611    1    3    3    0    0  0.74779011268E-02  0.93131967845E-03  0.12560426807E+00  0.12622685340E+00  0.10000000000E-01 0. -1.
      611    1    3    3    0    0 -0.88716700470E-02 -0.34364561185E-03  0.11859924210E+02  0.11859931749E+02  0.10000000000E-01 0.  1.
</event>
<event>
 7   0  0.6206631E-02  0.9118800E+02  0.7818608E-02  0.1180000E+00
       11   -1    0    0    0    0  0.00000000000E+00  0.00000000000E+00  0.11999999989E+02  0.12000000000E+02  0.51109989000E-03 0. -1.
     -623   -1    0    0    0    0  0.00000000000E+00  0.00000000000E+00  0.42561509872E-11  0.25126700000E+02  0.25126700000E+02 0. -1.
      622    2    1    2    0    0  0.43379414441E-01 -0.20603444609E-01  0.11247653228E+02  0.11248246428E+02  0.10506318365E+00 0.  0.
       11    1    1    2    0    0 -0.47543308466E-01  0.33664834579E-01  0.74948890458E+00  0.75174967016E+00  0.51109989000E-03 0. -1.
     -623    1    1    2    0    0  0.41638940256E-02 -0.13061389969E-01  0.28578561525E-02  0.25126703902E+02  0.25126700000E+02 0. -1.
     -611    1    3    3    0    0  0.77268008719E-01 -0.11253700182E-01  0.80155776363E+01  0.80159641862E+01  0.10000000000E-01 0. -1.
      611    1    3    3    0    0 -0.33888594278E-01 -0.93497444273E-02  0.32320755921E+01  0.32322822413E+01  0.10000000000E-01 0.  1.
</event>
<event>
 7   0  0.6206631E-02  0.9118800E+02  0.7818608E-02  0.1180000E+00
       11   -1    0    0    0    0  0.00000000000E+00  0.00000000000E+00  0.11999999989E+02  0.12000000000E+02  0.51109989000E-03 0.  1.
     -623   -1    0    0    0    0  0.00000000000E+00  0.00000000000E+00  0.42561509872E-11  0.25126700000E+02  0.25126700000E+02 0. -1.
      622    2    1    2    0    0  0.24705187946E-02  0.33391499209E-02  0.11808053420E+02  0.11808291985E+02  0.74945198490E-01 0.  0.
       11    1    1    2    0    0 -0.27985340943E-02 -0.33534799008E-02  0.19165756594E+00  0.19170801086E+00  0.51109989000E-03 0.  1.
     -623    1    1    2    0    0  0.32801529966E-03  0.14329979940E-04  0.28900295654E-03  0.25126700004E+02  0.25126700000E+02 0. -1.
     -611    1    3    3    0    0 -0.66039079818E-02 -0.14687722681E-01  0.83381806793E+00  0.83403351923E+00  0.10000000000E-01 0.  1.
      611    1    3    3    0    0  0.90744267765E-02  0.18026872602E-01  0.10974235352E+02  0.10974258466E+02  0.10000000000E-01 0.  1.
</event>
<event>
 7   0  0.6206631E-02  0.9118800E+02  0.7818608E-02  0.1180000E+00
       11   -1    0    0    0    0  0.00000000000E+00  0.00000000000E+00  0.11999999989E+02  0.12000000000E+02  0.51109989000E-03 0. -1.
     -623   -1    0    0    0    0  0.00000000000E+00  0.00000000000E+00  0.42561509872E-11  0.25126700000E+02  0.25126700000E+02 0. -1.
      622    2    1    2    0    0  0.62397437252E-02  0.12903036680E-01  0.86778383037E+01  0.86783401450E+01  0.92220513143E-01 0.  0.
       11    1    1    2    0    0 -0.52444102412E-02 -0.12983127629E-01  0.33216302769E+01  0.33216598296E+01  0.51109989000E-03 0. -1.
     -623    1    1    2    0    0 -0.99533348406E-03  0.80090949062E-04  0.53140842842E-03  0.25126700025E+02  0.25126700000E+02 0. -1.
     -611    1    3    3    0    0 -0.55594351853E-02 -0.38052253778E-01  0.40798329381E+01  0.40800264318E+01  0.10000000000E-01 0. -1.
      611    1    3    3    0    0  0.11799178911E-01  0.50955290458E-01  0.45980053657E+01  0.45983137132E+01  0.10000000000E-01 0. -1.
</event>
<event>
 7   0  0.6206631E-02  0.9118800E+02  0.7818608E-02  0.1180000E+00
       11   -1    0    0    0    0  0.00000000000E+00  0.00000000000E+00  0.11999999989E+02  0.12000000000E+02  0.51109989000E-03 0. -1.
     -623   -1    0    0    0    0  0.00000000000E+00  0.00000000000E+00  0.42561509872E-11  0.25126700000E+02  0.25126700000E+02 0. -1.
      622    2    1    2    0    0 -0.51976889385E-02 -0.37603375332E-02  0.11849817605E+02  0.11850323440E+02  0.10930333306E+00 0.  0.
       11    1    1    2    0    0  0.11142935894E-02  0.40857758823E-02  0.14961542111E+00  0.14967621946E+00  0.51109989000E-03 0. -1.
     -623    1    1    2    0    0  0.40833953490E-02 -0.32543834902E-03  0.56696336041E-03  0.25126700340E+02  0.25126700000E+02 0. -1.
     -611    1    3    3    0    0  0.52644769202E-03  0.41711777810E-01  0.23595597510E+01  0.23599496537E+01  0.10000000000E-01 0. -1.
      611    1    3    3    0    0 -0.57241366305E-02 -0.45472115343E-01  0.94902578536E+01  0.94903737865E+01  0.10000000000E-01 0.  1.
</event>
<event>
 7   0  0.6206631E-02  0.9118800E+02  0.7818608E-02  0.1180000E+00
       11   -1    0    0    0    0  0.00000000000E+00  0.00000000000E+00  0.11999999989E+02  0.12000000000E+02  0.51109989000E-03 0. -1.
     -623   -1    0    0    0    0  0.00000000000E+00  0.00000000000E+00  0.42561509872E-11  0.25126700000E+02  0.25126700000E+02 0. -1.
      622    2    1    2    0    0  0.99283127295E-02  0.13081957689E-01  0.11593770761E+02  0.11594307200E+02  0.11031445562E+00 0.  0.
       11    1    1    2    0    0 -0.20442668672E-02 -0.10123852038E-01  0.40555956836E+00  0.40569138039E+00  0.51109989000E-03 0. -1.
     -623    1    1    2    0    0 -0.78840458623E-02 -0.29581056514E-02  0.66966003596E-03  0.25126701420E+02  0.25126700000E+02 0. -1.
     -611    1    3    3    0    0 -0.30566656708E-02 -0.42311969703E-01  0.27271880449E+01  0.27275363019E+01  0.10000000000E-01 0.  1.
      611    1    3    3    0    0  0.12984978400E-01  0.55393927392E-01  0.88665827158E+01  0.88667708978E+01  0.10000000000E-01 0. -1.
</event>
<event>
 7   0  0.6206631E-02  0.9118800E+02  0.7818608E-02  0.1180000E+00
       11   -1    0    0    0    0  0.00000000000E+00  0.00000000000E+00  0.11999999989E+02  0.12000000000E+02  0.51109989000E-03 0.  1.
     -623   -1    0    0    0    0  0.00000000000E+00  0.00000000000E+00  0.42561509872E-11  0.25126700000E+02  0.25126700000E+02 0.  1.
      622    2    1    2    0    0  0.10828417472E-02  0.38234832974E-02  0.11818021455E+02  0.11818477458E+02  0.10374258401E+00 0.  0.
       11    1    1    2    0    0 -0.12969830476E-02  0.13854599716E-02  0.18151135621E+00  0.18152199679E+00  0.51109989000E-03 0.  1.
     -623    1    1    2    0    0  0.21414130046E-03 -0.52089432690E-02  0.46717792455E-03  0.25126700545E+02  0.25126700000E+02 0.  1.
     -611    1    3    3    0    0  0.16318761580E-01 -0.46434824587E-01  0.54254402505E+01  0.54256727146E+01  0.10000000000E-01 0. -1.
      611    1    3    3    0    0 -0.15235919833E-01  0.50258307885E-01  0.63925812045E+01  0.63928047434E+01  0.10000000000E-01 0.  1.
</event>
<event>
 7   0  0.6206631E-02  0.9118800E+02  0.7818608E-02  0.1180000E+00
       11   -1    0    0    0    0  0.00000000000E+00  0.00000000000E+00  0.11999999989E+02  0.12000000000E+02  0.51109989000E-03 0. -1.
     -623   -1    0    0    0    0  0.00000000000E+00  0.00000000000E+00  0.42561509872E-11  0.25126700000E+02  0.25126700000E+02 0.  1.
      622    2    1    2    0    0 -0.33208170111E-01 -0.58425284544E-01  0.48316466739E+01  0.48336406018E+01  0.12147259045E+00 0.  0.
       11    1    1    2    0    0  0.33001912866E-01  0.62980099451E-01  0.71660061152E+01  0.71663588748E+01  0.51109989000E-03 0. -1.
     -623    1    1    2    0    0  0.20625724476E-03 -0.45548149077E-02  0.23472000796E-02  0.25126700523E+02  0.25126700000E+02 0.  1.
     -611    1    3    3    0    0  0.22638202438E-01  0.25456597899E-01  0.16529660492E+01  0.16533472976E+01  0.10000000000E-01 0. -1.
      611    1    3    3    0    0 -0.55846372549E-01 -0.83881882443E-01  0.31786806247E+01  0.31802933043E+01  0.10000000000E-01 0.  1.
</event>
<event>
 7   0  0.6206631E-02  0.9118800E+02  0.7818608E-02  0.1180000E+00
       11   -1    0    0    0    0  0.00000000000E+00  0.00000000000E+00  0.11999999989E+02  0.12000000000E+02  0.51109989000E-03 0. -1.
     -623   -1    0    0    0    0  0.00000000000E+00  0.00000000000E+00  0.42561509872E-11  0.25126700000E+02  0.25126700000E+02 0.  1.
      622    2    1    2    0    0 -0.40621807732E-02 -0.76277779087E-02  0.11777553564E+02  0.11777921336E+02  0.92673451874E-01 0.  0.
       11    1    1    2    0    0  0.12645636020E-01  0.38884938371E-02  0.22168188733E+00  0.22207690759E+00  0.51109989000E-03 0. -1.
     -623    1    1    2    0    0 -0.85834552464E-02  0.37392840716E-02  0.76453771424E-03  0.25126701756E+02  0.25126700000E+02 0.  1.
     -611    1    3    3    0    0  0.13784725929E-02  0.39629795153E-01  0.38094629934E+01  0.38096824958E+01  0.10000000000E-01 0.  1.
      611    1    3    3    0    0 -0.54406533660E-02 -0.47257573062E-01  0.79680905707E+01  0.79682388406E+01  0.10000000000E-01 0. -1.
</event>
<event>
 7   0  0.6206631E-02  0.9118800E+02  0.7818608E-02  0.1180000E+00
       11   -1    0    0    0    0  0.00000000000E+00  0.00000000000E+00  0.11999999989E+02  0.12000000000E+02  0.51109989000E-03 0.  1.
     -623   -1    0    0    0    0  0.00000000000E+00  0.00000000000E+00  0.42561509872E-11  0.25126700000E+02  0.25126700000E+02 0.  1.
      622    2    1    2    0    0 -0.80668032032E-02  0.25843460763E-01  0.70707775427E+01  0.70723307803E+01  0.14572113473E+00 0.  0.
       11    1    1    2    0    0  0.35711371226E-02 -0.24340442128E-01  0.49276072844E+01  0.49276687207E+01  0.51109989000E-03 0.  1.
     -623    1    1    2    0    0  0.44956660805E-02 -0.15030186354E-02  0.16151619816E-02  0.25126700499E+02  0.25126700000E+02 0.  1.
     -611    1    3    3    0    0 -0.39497030184E-01  0.17531521191E-01  0.67171799767E+00  0.67318083604E+00  0.10000000000E-01 0. -1.
      611    1    3    3    0    0  0.31430226980E-01  0.83119395718E-02  0.63990595450E+01  0.63991499442E+01  0.10000000000E-01 0.  1.
</event>
<event>
 7   0  0.6206631E-02  0.9118800E+02  0.7818608E-02  0.1180000E+00
       11   -1    0    0    0    0  0.00000000000E+00  0.00000000000E+00  0.11999999989E+02  0.12000000000E+02  0.51109989000E-03 0.  1.
     -623   -1    0    0    0    0  0.00000000000E+00  0.00000000000E+00  0.42561509872E-11  0.25126700000E+02  0.25126700000E+02 0.  1.
      622    2    1    2    0    0 -0.17926576017E-01  0.10079553038E-01  0.11618277449E+02  0.11619286241E+02  0.15171988678E+00 0.  0.
       11    1    1    2    0    0  0.14761780523E-01 -0.14304190368E-01  0.38015750103E+00  0.38071315559E+00  0.51109989000E-03 0.  1.
     -623    1    1    2    0    0  0.31647954942E-02  0.42246373299E-02  0.15650395337E-02  0.25126700603E+02  0.25126700000E+02 0.  1.
     -611    1    3    3    0    0  0.40083910349E-01 -0.18941397809E-01  0.12901052747E+01  0.12909055411E+01  0.10000000000E-01 0. -1.
      611    1    3    3    0    0 -0.58010486366E-01  0.29020950847E-01  0.10328172174E+02  0.10328380700E+02  0.10000000000E-01 0.  1.
</event>
<event>
 6   0  0.6206631E-02  0.9118800E+02  0.7818608E-02  0.1180000E+00
       11   -1    0    0    0    0  0.00000000000E+00  0.00000000000E+00  0.11999999989E+02  0.12000000000E+02  0.51109989000E-03 0.  1.
     -623   -1    0    0    0    0  0.00000000000E+00  0.00000000000E+00  0.42561509872E-11  0.25126700000E+02  0.25126700000E+02 0.  1.
       11    1    1    2    0    0 -0.39099576475E-02 -0.24199133897E-01  0.24413752373E-01  0.34600265580E-01  0.51109989000E-03 0.  1.
     -623    1    1    2    0    0  0.33306892227E-01  0.41054009677E-01  0.17102292537E-01  0.25126761434E+02  0.25126700000E+02 0.  1.
     -611    1    1    2    0    0 -0.10549634816E+00  0.84945344712E-02  0.85811752326E+00  0.86467758171E+00  0.10000000000E-01 0. -1.
      611    1    1    2    0    0  0.76099413581E-01 -0.25349410252E-01  0.11100366421E+02  0.11100660719E+02  0.10000000000E-01 0.  1.
</event>
<event>
 7   0  0.6206631E-02  0.9118800E+02  0.7818608E-02  0.1180000E+00
       11   -1    0    0    0    0  0.00000000000E+00  0.00000000000E+00  0.11999999989E+02  0.12000000000E+02  0.51109989000E-03 0. -1.
     -623   -1    0    0    0    0  0.00000000000E+00  0.00000000000E+00  0.42561509872E-11  0.25126700000E+02  0.25126700000E+02 0.  1.
      622    2    1    2    0    0 -0.60472555305E-03 -0.19116940608E-01  0.10829038816E+02  0.10829641596E+02  0.11264805672E+00 0.  0.
       11    1    1    2    0    0 -0.12181742431E-01 -0.40117667762E-02  0.11702741092E+01  0.11703444967E+01  0.51109989000E-03 0. -1.
     -623    1    1    2    0    0  0.12786467984E-01  0.23128707384E-01  0.68706367847E-03  0.25126713908E+02  0.25126700000E+02 0.  1.
     -611    1    3    3    0    0 -0.33425264169E-01 -0.41351237008E-01  0.89245062558E+01  0.89246702506E+01  0.10000000000E-01 0. -1.
      611    1    3    3    0    0  0.32820538616E-01  0.22234296400E-01  0.19045325605E+01  0.19049713451E+01  0.10000000000E-01 0.  1.
</event>
<event>
 7   0  0.6206631E-02  0.9118800E+02  0.7818608E-02  0.1180000E+00
       11   -1    0    0    0    0  0.00000000000E+00  0.00000000000E+00  0.11999999989E+02  0.12000000000E+02  0.51109989000E-03 0. -1.
     -623   -1    0    0    0    0  0.00000000000E+00  0.00000000000E+00  0.42561509872E-11  0.25126700000E+02  0.25126700000E+02 0.  1.
      622    2    1    2    0    0 -0.12910164977E-01 -0.41582165061E-02  0.11677140999E+02  0.11678301583E+02  0.16407919553E+00 0.  0.
       11    1    1    2    0    0  0.13616425497E-01 -0.65028638950E-02  0.32134160209E+00  0.32169609997E+00  0.51109989000E-03 0. -1.
     -623    1    1    2    0    0 -0.70626051936E-03  0.10661080401E-01  0.15173881394E-02  0.25126702317E+02  0.25126700000E+02 0.  1.
     -611    1    3    3    0    0 -0.80193865395E-01 -0.52231810007E-02  0.37792117691E+01  0.37800793554E+01  0.10000000000E-01 0. -1.
      611    1    3    3    0    0  0.67283700417E-01  0.10649644946E-02  0.78979292298E+01  0.78982222271E+01  0.10000000000E-01 0. -1.
</event>
<event>
 7   0  0.6206631E-02  0.9118800E+02  0.7818608E-02  0.1180000E+00
       11   -1    0    0    0    0  0.00000000000E+00  0.00000000000E+00  0.11999999989E+02  0.12000000000E+02  0.51109989000E-03 0. -1.
     -623   -1    0    0    0    0  0.00000000000E+00  0.00000000000E+00  0.42561509872E-11  0.25126700000E+02  0.25126700000E+02 0. -1.
      622    2    1    2    0    0 -0.19297981033E-02  0.16863973054E-02  0.11965989045E+02  0.11966115591E+02  0.54972239340E-01 0.  0.
       11    1    1    2    0    0  0.13819520527E-02 -0.19031693066E-02  0.33798810076E-01  0.33884400991E-01  0.51109989000E-03 0. -1.
     -623    1    1    2    0    0  0.54784605052E-03  0.21677200118E-03  0.21213396517E-03  0.25126700008E+02  0.25126700000E+02 0. -1.
     -611    1    3    3    0    0  0.98260246042E-02  0.66998875440E-02  0.10544528874E+01  0.10545673668E+01  0.10000000000E-01 0. -1.
      611    1    3    3    0    0 -0.11755822708E-01 -0.50134902386E-02  0.10911536158E+02  0.10911548224E+02  0.10000000000E-01 0. -1.
</event>
<event>
 7   0  0.6206631E-02  0.9118800E+02  0.7818608E-02  0.1180000E+00
       11   -1    0    0    0    0  0.00000000000E+00  0.00000000000E+00  0.11999999989E+02  0.12000000000E+02  0.51109989000E-03 0.  1.
     -623   -1    0    0    0    0  0.00000000000E+00  0.00000000000E+00  0.42561509872E-11  0.25126700000E+02  0.25126700000E+02 0. -1.
      622    2    1    2    0    0 -0.15234678245E-01 -0.54740310070E-02  0.10922434621E+02  0.10922874092E+02  0.96634944486E-01 0.  0.
       11    1    1    2    0    0  0.15887165589E-01  0.61291491994E-02  0.10769911520E+01  0.10771258845E+01  0.51109989000E-03 0.  1.
     -623    1    1    2    0    0 -0.65248734450E-03 -0.65511819234E-03  0.57421595473E-03  0.25126700024E+02  0.25126700000E+02 0. -1.
     -611    1    3    3    0    0  0.38864502343E-01 -0.10671587041E-01  0.38627334507E+01  0.38629566453E+01  0.10000000000E-01 0. -1.
      611    1    3    3    0    0 -0.54099180588E-01  0.51975560336E-02  0.70597011706E+01  0.70599174466E+01  0.10000000000E-01 0.  1.
</event>
<event>
 7   0  0.6206631E-02  0.9118800E+02  0.7818608E-02  0.1180000E+00
       11   -1    0    0    0    0  0.00000000000E+00  0.00000000000E+00  0.11999999989E+02  0.12000000000E+02  0.51109989000E-03 0.  1.
     -623   -1    0    0    0    0  0.00000000000E+00  0.00000000000E+00  0.42561509872E-11  0.25126700000E+02  0.25126700000E+02 0.  1.
      622    2    1    2    0    0 -0.14263769937E-02  0.47007550939E-02  0.11889826201E+02  0.11890005632E+02  0.65136169163E-01 0.  0.
       11    1    1    2    0    0  0.41824067702E-02 -0.50743757788E-02  0.10979628133E+00  0.10999421091E+00  0.51109989000E-03 0. -1.
     -623    1    1    2    0    0 -0.27560297765E-02  0.37362068492E-03  0.37750701227E-03  0.25126700157E+02  0.25126700000E+02 0.  1.
     -611    1    3    3    0    0  0.13408995975E-01 -0.25281970746E-01  0.58406878947E+01  0.58407665647E+01  0.10000000000E-01 0. -1.
      611    1    3    3    0    0 -0.14835372969E-01  0.29982725839E-01  0.60491383060E+01  0.60492390677E+01  0.10000000000E-01 0.  1.
</event>
<event>
 7   0  0.6206631E-02  0.9118800E+02  0.7818608E-02  0.1180000E+00
       11   -1    0    0    0    0  0.00000000000E+00  0.00000000000E+00  0.11999999989E+02  0.12000000000E+02  0.51109989000E-03 0.  1.
     -623   -1    0    0    0    0  0.00000000000E+00  0.00000000000E+00  0.42561509872E-11  0.25126700000E+02  0.25126700000E+02 0. -1.
      622    2    1    2    0    0  0.72738991344E-03 -0.40379388561E-02  0.11976392870E+02  0.11976483563E+02  0.46427565317E-01 0.  0.
       11    1    1    2    0    0  0.42463248491E-02  0.65580740792E-02  0.22174105870E-01  0.23515777780E-01  0.51109989000E-03 0.  1.
     -623    1    1    2    0    0 -0.49737147626E-02 -0.25201352231E-02  0.14330133133E-02  0.25126700660E+02  0.25126700000E+02 0. -1.
     -611    1    3    3    0    0  0.73961897234E-02  0.58902335985E-02  0.11922812379E+01  0.11923606622E+01  0.10000000000E-01 0. -1.
      611    1    3    3    0    0 -0.66687998099E-02 -0.99281724546E-02  0.10784111632E+02  0.10784122901E+02  0.10000000000E-01 0.  1.
</event>
<event>
 7   0  0.6206631E-02  0.9118800E+02  0.7818608E-02  0.1180000E+00
       11   -1    0    0    0    0  0.00000000000E+00  0.00000000000E+00  0.11999999989E+02  0.12000000000E+02  0.51109989000E-03 0. -1.
     -623   -1    0    0    0    0  0.00000000000E+00  0.00000000000E+00  0.42561509872E-11  0.25126700000E+02  0.25126700000E+02 0.  1.
      622    2    1    2    0    0  0.27975235567E-02  0.97483098755E-02  0.11848694447E+02  0.11849000630E+02  0.84575195162E-01 0.  0.
       11    1    1    2    0    0 -0.29828924900E-02 -0.89352062103E-02  0.15070436850E+00  0.15099934922E+00  0.51109989000E-03 0. -1.
     -623    1    1    2    0    0  0.18536893335E-03 -0.81310366522E-03  0.60117336592E-03  0.25126700021E+02  0.25126700000E+02 0.  1.
     -611    1    3    3    0    0  0.28335322007E-01 -0.26202095988E-01  0.58332532230E+01  0.58333894610E+01  0.10000000000E-01 0. -1.
      611    1    3    3    0    0 -0.25537798451E-01  0.35950405864E-01  0.60154412243E+01  0.60156111687E+01  0.10000000000E-01 0.  1.
</event>
<event>
 7   0  0.6206631E-02  0.9118800E+02  0.7818608E-02  0.1180000E+00
       11   -1    0    0    0    0  0.00000000000E+00  0.00000000000E+00  0.11999999989E+02  0.12000000000E+02  0.51109989000E-03 0.  1.
     -623   -1    0    0    0    0  0.00000000000E+00  0.00000000000E+00  0.42561509872E-11  0.25126700000E+02  0.25126700000E+02 0. -1.
      622    2    1    2    0    0 -0.47181709115E-02  0.36484636695E-02  0.11971335354E+02  0.11971765909E+02  0.10135695196E+00 0.  0.
       11    1    1    2    0    0 -0.15491499652E-01 -0.15584388038E-01  0.17699973020E-01  0.28220736702E-01  0.51109989000E-03 0.  1.
     -623    1    1    2    0    0  0.20209670563E-01  0.11935924369E-01  0.10964661789E-01  0.25126713355E+02  0.25126700000E+02 0. -1.
     -611    1    3    3    0    0 -0.61798105637E-02  0.51366071555E-01  0.60072648172E+01  0.60074959215E+01  0.10000000000E-01 0. -1.
      611    1    3    3    0    0  0.14616396522E-02 -0.47717607885E-01  0.59640705371E+01  0.59642699870E+01  0.10000000000E-01 0.  1.
</event>
<event>
 7   0  0.6206631E-02  0.9118800E+02  0.7818608E-02  0.1180000E+00
       11   -1    0    0    0    0  0.00000000000E+00  0.00000000000E+00  0.11999999989E+02  0.12000000000E+02  0.51109989000E-03 0.  1.
     -623   -1    0    0    0    0  0.00000000000E+00  0.00000000000E+00  0.42561509872E-11  0.25126700000E+02  0.25126700000E+02 0.  1.
      622    2    1    2    0    0  0.35671355882E-02 -0.88034897745E-02  0.11826045672E+02  0.11826573988E+02  0.11138152101E+00 0.  0.
       11    1    1    2    0    0 -0.12004576155E-02 -0.85091092769E-03  0.17341704437E+00  0.17342404000E+00  0.51109989000E-03 0.  1.
     -623    1    1    2    0    0 -0.23666779727E-02  0.96544007021E-02  0.53727319392E-03  0.25126701972E+02  0.25126700000E+02 0.  1.
     -611    1    3    3    0    0 -0.28454275362E-01 -0.24621871839E-01  0.10314070628E+02  0.10314144114E+02  0.10000000000E-01 0.  1.
      611    1    3    3    0    0  0.32021410950E-01  0.15818382065E-01  0.15119750433E+01  0.15124298739E+01  0.10000000000E-01 0. -1.
</event>
<event>
 7   0  0.6206631E-02  0.9118800E+02  0.7818608E-02  0.1180000E+00
       11   -1    0    0    0    0  0.00000000000E+00  0.00000000000E+00  0.11999999989E+02  0.12000000000E+02  0.51109989000E-03 0.  1.
     -623   -1    0    0    0    0  0.00000000000E+00  0.00000000000E+00  0.42561509872E-11  0.25126700000E+02  0.25126700000E+02 0.  1.
      622    2    1    2    0    0  0.16335057025E+00  0.97295362126E-01  0.49513784593E+01  0.49577799095E+01  0.16517622969E+00 0.  0.
       11    1    1    2    0    0 -0.12386897430E+00 -0.15956096136E+00  0.70392124587E+01  0.70421101613E+01  0.51109989000E-03 0.  1.
     -623    1    1    2    0    0 -0.39481595950E-01  0.62265599234E-01  0.94090710723E-02  0.25126809929E+02  0.25126700000E+02 0.  1.
     -611    1    3    3    0    0  0.10663897862E+00  0.23401862151E-01  0.11421745876E+01  0.11474242055E+01  0.10000000000E-01 0.  1.
      611    1    3    3    0    0  0.56711591635E-01  0.73893499975E-01  0.38092038718E+01  0.38103557039E+01  0.10000000000E-01 0. -1.
</event>
<event>
 7   0  0.6206631E-02  0.9118800E+02  0.7818608E-02  0.1180000E+00
       11   -1    0    0    0    0  0.00000000000E+00  0.00000000000E+00  0.11999999989E+02  0.12000000000E+02  0.51109989000E-03 0.  1.
     -623   -1    0    0    0    0  0.00000000000E+00  0.00000000000E+00  0.42561509872E-11  0.25126700000E+02  0.25126700000E+02 0. -1.
      622    2    1    2    0    0  0.57422938425E-01  0.11208991313E-01  0.98194354562E+01  0.98201117393E+01  0.99291782498E-01 0.  0.
       11    1    1    2    0    0 -0.74414235312E-01  0.52021196453E-03  0.21786090758E+01  0.21798797020E+01  0.51109989000E-03 0.  1.
     -623    1    1    2    0    0  0.16991296886E-01 -0.11729203278E-01  0.19554571165E-02  0.25126708559E+02  0.25126700000E+02 0. -1.
     -611    1    3    3    0    0  0.61419123650E-01  0.95931273655E-03  0.95866580142E+01  0.95868600235E+01  0.10000000000E-01 0.  1.
      611    1    3    3    0    0 -0.39961852250E-02  0.10249678577E-01  0.23277744205E+00  0.23325171582E+00  0.10000000000E-01 0. -1.
</event>
<event>
 7   0  0.6206631E-02  0.9118800E+02  0.7818608E-02  0.1180000E+00
       11   -1    0    0    0    0  0.00000000000E+00  0.00000000000E+00  0.11999999989E+02  0.12000000000E+02  0.51109989000E-03 0.  1.
     -623   -1    0    0    0    0  0.00000000000E+00  0.00000000000E+00  0.42561509872E-11  0.25126700000E+02  0.25126700000E+02 0.  1.
      622    2    1    2    0    0 -0.44289955631E-02 -0.14009100755E-01  0.11856548648E+02  0.11857136928E+02  0.11719398172E+00 0.  0.
       11    1    1    2    0    0 -0.26870608516E-01 -0.58688314547E-02  0.14016149904E+00  0.14283549916E+00  0.51109989000E-03 0.  1.
     -623    1    1    2    0    0  0.31299604079E-01  0.19877932210E-01  0.32898424596E-02  0.25126727573E+02  0.25126700000E+02 0.  1.
     -611    1    3    3    0    0 -0.42128546809E-01 -0.24032608750E-02  0.18600438991E+01  0.18605493535E+01  0.10000000000E-01 0. -1.
      611    1    3    3    0    0  0.37699551246E-01 -0.11605839880E-01  0.99965047485E+01  0.99965875747E+01  0.10000000000E-01 0.  1.
</event>
<event>
 7   0  0.6206631E-02  0.9118800E+02  0.7818608E-02  0.1180000E+00
       11   -1    0    0    0    0  0.00000000000E+00  0.00000000000E+00  0.11999999989E+02  0.12000000000E+02  0.51109989000E-03 0.  1.
     -623   -1    0    0    0    0  0.00000000000E+00  0.00000000000E+00  0.42561509872E-11  0.25126700000E+02  0.25126700000E+02 0.  1.
      622    2    1    2    0    0 -0.78112906794E-02  0.48703389234E-02  0.11971909317E+02  0.11972258689E+02  0.90998358571E-01 0.  0.
       11    1    1    2    0    0  0.79645536813E-02  0.26131622198E-02  0.26438447235E-01  0.27740141446E-01  0.51109989000E-03 0.  1.
     -623    1    1    2    0    0 -0.15326300187E-03 -0.74835011432E-02  0.16522251903E-02  0.25126701169E+02  0.25126700000E+02 0.  1.
     -611    1    3    3    0    0 -0.26851158091E-01  0.40626270341E-01  0.63735692987E+01  0.63737631807E+01  0.10000000000E-01 0.  1.
      611    1    3    3    0    0  0.19039867412E-01 -0.35755931418E-01  0.55983400180E+01  0.55984955087E+01  0.10000000000E-01 0.  1.
</event>
<event>
 7   0  0.6206631E-02  0.9118800E+02  0.7818608E-02  0.1180000E+00
       11   -1    0    0    0    0  0.00000000000E+00  0.00000000000E+00  0.11999999989E+02  0.12000000000E+02  0.51109989000E-03 0.  1.
     -623   -1    0    0    0    0  0.00000000000E+00  0.00000000000E+00  0.42561509872E-11  0.25126700000E+02  0.25126700000E+02 0. -1.
      622    2    1    2    0    0 -0.35294277806E-01 -0.18711168353E+00  0.73597315465E+01  0.73626961433E+01  0.85962746895E-01 0.  0.
       11    1    1    2    0    0  0.24903728356E-01  0.16619543745E+00  0.46342462514E+01  0.46372922810E+01  0.51109989000E-03 0.  1.
     -623    1    1    2    0    0  0.10390549450E-01  0.20916246079E-01  0.60221911936E-02  0.25126711576E+02  0.25126700000E+02 0. -1.
     -611    1    3    3    0    0  0.30569676400E-02 -0.18522802804E-01  0.26538936402E+00  0.26624040604E+00  0.10000000000E-01 0.  1.
      611    1    3    3    0    0 -0.38351245446E-01 -0.16858888072E+00  0.70943421825E+01  0.70964557372E+01  0.10000000000E-01 0.  1.
</event>
<event>
 7   0  0.6206631E-02  0.9118800E+02  0.7818608E-02  0.1180000E+00
       11   -1    0    0    0    0  0.00000000000E+00  0.00000000000E+00  0.11999999989E+02  0.12000000000E+02  0.51109989000E-03 0.  1.
     -623   -1    0    0    0    0  0.00000000000E+00  0.00000000000E+00  0.42561509872E-11  0.25126700000E+02  0.25126700000E+02 0. -1.
      622    2    1    2    0    0  0.91086713900E-02  0.45468006272E-03  0.83603348972E+01  0.83606190918E+01  0.68328834462E-01 0.  0.
       11    1    1    2    0    0 -0.14724793802E-01 -0.42931979255E-02  0.36393476292E+01  0.36393799854E+01  0.51109989000E-03 0.  1.
     -623    1    1    2    0    0  0.56161224123E-02  0.38385178628E-02  0.31746277391E-03  0.25126700923E+02  0.25126700000E+02 0. -1.
     -611    1    3    3    0    0  0.11012662716E-01 -0.28873913629E-01  0.26374923714E+01  0.26376923609E+01  0.10000000000E-01 0. -1.
      611    1    3    3    0    0 -0.19039913259E-02  0.29328593692E-01  0.57228425258E+01  0.57229267308E+01  0.10000000000E-01 0.  1.
</event>
<event>
 7   0  0.6206631E-02  0.9118800E+02  0.7818608E-02  0.1180000E+00
       11   -1    0    0    0    0  0.00000000000E+00  0.00000000000E+00  0.11999999989E+02  0.12000000000E+02  0.51109989000E-03 0. -1.
     -623   -1    0    0    0    0  0.00000000000E+00  0.00000000000E+00  0.42561509872E-11  0.25126700000E+02  0.25126700000E+02 0.  1.
      622    2    1    2    0    0  0.23266009094E-02  0.59839571488E-02  0.11995710390E+02  0.11996848173E+02  0.16509725271E+00 0.  0.
       11    1    1    2    0    0  0.10794880742E-02 -0.52241341039E-03  0.28686457799E-02  0.31509620815E-02  0.51109989000E-03 0. -1.
     -623    1    1    2    0    0 -0.34060889836E-02 -0.54615437384E-02  0.14209529536E-02  0.25126700865E+02  0.25126700000E+02 0.  1.
     -611    1    3    3    0    0 -0.46318916146E-01  0.32806265114E-01  0.16886682944E+01  0.16896515326E+01  0.10000000000E-01 0.  1.
      611    1    3    3    0    0  0.48645517056E-01 -0.26822307965E-01  0.10307042096E+02  0.10307196641E+02  0.10000000000E-01 0. -1.
</event>
<event>
 7   0  0.6206631E-02  0.9118800E+02  0.7818608E-02  0.1180000E+00
       11   -1    0    0    0    0  0.00000000000E+00  0.00000000000E+00  0.11999999989E+02  0.12000000000E+02  0.51109989000E-03 0. -1.
     -623   -1    0    0    0    0  0.00000000000E+00  0.00000000000E+00  0.42561509872E-11  0.25126700000E+02  0.25126700000E+02 0. -1.
      622    2    1    2    0    0  0.72546598846E-03  0.37205035305E-01  0.89412009462E+01  0.89417457619E+01  0.91423020479E-01 0.  0.
       11    1    1    2    0    0 -0.11701682007E-01 -0.11767040110E-01  0.30581938891E+01  0.30582389569E+01  0.51109989000E-03 0. -1.
     -623    1    1    2    0    0  0.10976216019E-01 -0.25437995194E-01  0.60515378644E-03  0.25126715281E+02  0.25126700000E+02 0. -1.
     -611    1    3    3    0    0  0.45287048228E-02  0.65818306367E-02  0.79571805473E+01  0.79571908417E+01  0.10000000000E-01 0. -1.
      611    1    3    3    0    0 -0.38032388343E-02  0.30623204668E-01  0.98402039895E+00  0.98455492017E+00  0.10000000000E-01 0.  1.
</event>
<event>
 7   0  0.6206631E-02  0.9118800E+02  0.7818608E-02  0.1180000E+00
       11   -1    0    0    0    0  0.00000000000E+00  0.00000000000E+00  0.11999999989E+02  0.12000000000E+02  0.51109989000E-03 0.  1.
     -623   -1    0    0    0    0  0.00000000000E+00  0.00000000000E+00  0.42561509872E-11  0.25126700000E+02  0.25126700000E+02 0.  1.
      622    2    1    2    0    0  0.21967707658E-02 -0.42192783570E-02  0.11868520817E+02  0.11868914868E+02  0.96597744835E-01 0.  0.
       11    1    1    2    0    0 -0.15586168876E-02  0.46982260995E-02  0.13099062364E+00  0.13108511479E+00  0.51109989000E-03 0.  1.
     -623    1    1    2    0    0 -0.63815387821E-03 -0.47894774256E-03  0.48854835839E-03  0.25126700017E+02  0.25126700000E+02 0.  1.
     -611    1    3    3    0    0  0.25493274706E-01 -0.31556988065E-02  0.10426907111E+01  0.10430550247E+01  0.10000000000E-01 0. -1.
      611    1    3    3    0    0 -0.23296503941E-01 -0.10635795505E-02  0.10825830106E+02  0.10825859843E+02  0.10000000000E-01 0.  1.
</event>
<event>
 7   0  0.6206631E-02  0.9118800E+02  0.7818608E-02  0.1180000E+00
       11   -1    0    0    0    0  0.00000000000E+00  0.00000000000E+00  0.11999999989E+02  0.12000000000E+02  0.51109989000E-03 0.  1.
     -623   -1    0    0    0    0  0.00000000000E+00  0.00000000000E+00  0.42561509872E-11  0.25126700000E+02  0.25126700000E+02 0.  1.
      622    2    1    2    0    0  0.75515795107E-02 -0.34161038370E-02  0.11917625713E+02  0.11917946900E+02  0.87103228569E-01 0.  0.
       11    1    1    2    0    0 -0.45789926712E-02  0.10249849142E-01  0.81278768030E-01  0.82051970951E-01  0.51109989000E-03 0.  1.
     -623    1    1    2    0    0 -0.29725868396E-02 -0.68337453050E-02  0.10955077333E-02  0.25126701129E+02  0.25126700000E+02 0.  1.
     -611    1    3    3    0    0  0.34746065241E-01 -0.51753716494E-02  0.24089992429E+01  0.24092761207E+01  0.10000000000E-01 0.  1.
      611    1    3    3    0    0 -0.27194485731E-01  0.17592678124E-02  0.95086264704E+01  0.95086707793E+01  0.10000000000E-01 0. -1.
</event>
<event>
 7   0  0.6206631E-02  0.9118800E+02  0.7818608E-02  0.1180000E+00
       11   -1    0    0    0    0  0.00000000000E+00  0.00000000000E+00  0.11999999989E+02  0.12000000000E+02  0.51109989000E-03 0.  1.
     -623   -1    0    0    0    0  0.00000000000E+00  0.00000000000E+00  0.42561509872E-11  0.25126700000E+02  0.25126700000E+02 0. -1.
      622    2    1    2    0    0 -0.24811898162E-02  0.56820564671E-03  0.11993940588E+02  0.11994384887E+02  0.10320616936E+00 0.  0.
       11    1    1    2    0    0  0.12384620261E-02  0.74533941803E-03  0.54016779253E-02  0.56150393218E-02  0.51109989000E-03 0.  1.
     -623    1    1    2    0    0  0.12427277901E-02 -0.13135450647E-02  0.65772333800E-03  0.25126700074E+02  0.25126700000E+02 0. -1.
     -611    1    3    3    0    0  0.47186364643E-01  0.11892980439E-01  0.48033842947E+01  0.48036411896E+01  0.10000000000E-01 0.  1.
      611    1    3    3    0    0 -0.49667554460E-01 -0.11324774792E-01  0.71905562932E+01  0.71907436974E+01  0.10000000000E-01 0. -1.
</event>
<event>
 7   0  0.6206631E-02  0.9118800E+02  0.7818608E-02  0.1180000E+00
       11   -1    0    0    0    0  0.00000000000E+00  0.00000000000E+00  0.11999999989E+02  0.12000000000E+02  0.51109989000E-03 0. -1.
     -623   -1    0    0    0    0  0.00000000000E+00  0.00000000000E+00  0.42561509872E-11  0.25126700000E+02  0.25126700000E+02 0. -1.
      622    2    1    2    0    0 -0.13808828107E-01 -0.22323301830E-01  0.11780034806E+02  0.11780820693E+02  0.13351844260E+00 0.  0.
       11    1    1    2    0    0  0.27252087515E-01 -0.11142970285E-01  0.21716595368E+00  0.21915326765E+00  0.51109989000E-03 0. -1.
     -623    1    1    2    0    0 -0.13443259409E-01  0.33466272115E-01  0.27992298405E-02  0.25126726039E+02  0.25126700000E+02 0. -1.
     -611    1    3    3    0    0 -0.73169650382E-01 -0.14389099990E-01  0.67616133728E+01  0.67620319614E+01  0.10000000000E-01 0.  1.
      611    1    3    3    0    0  0.59360822276E-01 -0.79342018398E-02  0.50184214328E+01  0.50187887320E+01  0.10000000000E-01 0. -1.
</event>
<event>
 7   0  0.6206631E-02  0.9118800E+02  0.7818608E-02  0.1180000E+00
       11   -1    0    0    0    0  0.00000000000E+00  0.00000000000E+00  0.11999999989E+02  0.12000000000E+02  0.51109989000E-03 0. -1.
     -623   -1    0    0    0    0  0.00000000000E+00  0.00000000000E+00  0.42561509872E-11  0.25126700000E+02  0.25126700000E+02 0. -1.
      622    2    1    2    0    0 -0.15271645250E-02 -0.12516374603E-03  0.11987613109E+02  0.11987935040E+02  0.87841421510E-01 0.  0.
       11    1    1    2    0    0  0.32236727686E-03 -0.13107471117E-02  0.11978242860E-01  0.12064887226E-01  0.51109989000E-03 0. -1.
     -623    1    1    2    0    0  0.12047972482E-02  0.14359108577E-02  0.40863734874E-03  0.25126700073E+02  0.25126700000E+02 0. -1.
     -611    1    3    3    0    0  0.11342467877E-01  0.27155844154E-01  0.17725087299E+01  0.17727812298E+01  0.10000000000E-01 0.  1.
      611    1    3    3    0    0 -0.12869632402E-01 -0.27281007900E-01  0.10215104379E+02  0.10215153810E+02  0.10000000000E-01 0. -1.
</event>
<event>
 7   0  0.6206631E-02  0.9118800E+02  0.7818608E-02  0.1180000E+00
       11   -1    0    0    0    0  0.00000000000E+00  0.00000000000E+00  0.11999999989E+02  0.12000000000E+02  0.51109989000E-03 0.  1.
     -623   -1    0    0    0    0  0.00000000000E+00  0.00000000000E+00  0.42561509872E-11  0.25126700000E+02  0.25126700000E+02 0. -1.
      622    2    1    2    0    0 -0.14349393187E-01 -0.60458854257E-02  0.11975513987E+02  0.11976082761E+02  0.11567447106E+00 0.  0.
       11    1    1    2    0    0 -0.10554040731E-02 -0.77231912389E-02  0.22596501033E-01  0.23908672961E-01  0.51109989000E-03 0.  1.
     -623    1    1    2    0    0  0.15404797260E-01  0.13769076665E-01  0.18895007590E-02  0.25126708566E+02  0.25126700000E+02 0. -1.
     -611    1    3    3    0    0 -0.28935226682E-01 -0.18139656023E-01  0.11560289222E+01  0.11565764840E+01  0.10000000000E-01 0. -1.
      611    1    3    3    0    0  0.14585833495E-01  0.12093770597E-01  0.10819485065E+02  0.10819506277E+02  0.10000000000E-01 0.  1.
</event>
<event>
 7   0  0.6206631E-02  0.9118800E+02  0.7818608E-02  0.1180000E+00
       11   -1    0    0    0    0  0.00000000000E+00  0.00000000000E+00  0.11999999989E+02  0.12000000000E+02  0.51109989000E-03 0.  1.
     -623   -1    0    0    0    0  0.00000000000E+00  0.00000000000E+00  0.42561509872E-11  0.25126700000E+02  0.25126700000E+02 0.  1.
      622    2    1    2    0    0  0.51581366248E-01 -0.17769003838E-01  0.11196993778E+02  0.11197579778E+02  0.10073152757E+00 0.  0.
       11    1    1    2    0    0 -0.43435367402E-01 -0.45304026815E-01  0.79988086479E+00  0.80233954475E+00  0.51109989000E-03 0.  1.
     -623    1    1    2    0    0 -0.81459988456E-02  0.63073030653E-01  0.31253465136E-02  0.25126780678E+02  0.25126700000E+02 0.  1.
     -611    1    3    3    0    0  0.54471712176E-02  0.16433753553E-01  0.81714972278E+01  0.81715216872E+01  0.10000000000E-01 0.  1.
      611    1    3    3    0    0  0.46134195030E-01 -0.34202757391E-01  0.30254965500E+01  0.30260580904E+01  0.10000000000E-01 0. -1.
</event>
<event>
 7   0  0.6206631E-02  0.9118800E+02  0.7818608E-02  0.1180000E+00
       11   -1    0    0    0    0  0.00000000000E+00  0.00000000000E+00  0.11999999989E+02  0.12000000000E+02  0.51109989000E-03 0. -1.
     -623   -1    0    0    0    0  0.00000000000E+00  0.00000000000E+00  0.42561509872E-11  0.25126700000E+02  0.25126700000E+02 0.  1.
      622    2    1    2    0    0  0.40262380168E-01 -0.12692775341E-01  0.10392865384E+02  0.10393328760E+02  0.88598257916E-01 0.  0.
       11    1    1    2    0    0 -0.81842215572E-03  0.22016619322E-01  0.16064873926E+01  0.16066385422E+01  0.51109989000E-03 0. -1.
     -623    1    1    2    0    0 -0.39443958013E-01 -0.93238439813E-02  0.64721221185E-03  0.25126732698E+02  0.25126700000E+02 0.  1.
     -611    1    3    3    0    0  0.17653883668E-01 -0.81275804587E-02  0.55364634108E+00  0.55407760121E+00  0.10000000000E-01 0.  1.
      611    1    3    3    0    0  0.22608496500E-01 -0.45651948820E-02  0.98392190432E+01  0.98392511588E+01  0.10000000000E-01 0. -1.
</event>
<event>
 7   0  0.6206631E-02  0.9118800E+02  0.7818608E-02  0.1180000E+00
       11   -1    0    0    0    0  0.00000000000E+00  0.00000000000E+00  0.11999999989E+02  0.12000000000E+02  0.51109989000E-03 0.  1.
     -623   -1    0    0    0    0  0.00000000000E+00  0.00000000000E+00  0.42561509872E-11  0.25126700000E+02  0.25126700000E+02 0. -1.
      622    2    1    2    0    0  0.11653796605E+00 -0.19366619060E-01  0.22242718487E+01  0.22315942559E+01  0.13664370798E+00 0.  0.
       11    1    1    2    0    0 -0.10983189666E+00 -0.30898992893E-02  0.97677755811E+01  0.97683935556E+01  0.51109989000E-03 0.  1.
     -623    1    1    2    0    0 -0.67060693879E-02  0.22456518350E-01  0.79525593130E-02  0.25126712188E+02  0.25126700000E+02 0. -1.
     -611    1    3    3    0    0  0.14314702354E+00 -0.36470578367E-02  0.19759390520E+01  0.19811460089E+01  0.10000000000E-01 0.  1.
      611    1    3    3    0    0 -0.26609057487E-01 -0.15719561224E-01  0.24833279668E+00  0.25044824705E+00  0.10000000000E-01 0. -1.
</event>
<event>
 7   0  0.6206631E-02  0.9118800E+02  0.7818608E-02  0.1180000E+00
       11   -1    0    0    0    0  0.00000000000E+00  0.00000000000E+00  0.11999999989E+02  0.12000000000E+02  0.51109989000E-03 0.  1.
     -623   -1    0    0    0    0  0.00000000000E+00  0.00000000000E+00  0.42561509872E-11  0.25126700000E+02  0.25126700000E+02 0.  1.
      622    2    1    2    0    0  0.12467778831E+00 -0.13334071485E-01  0.39100769125E+01  0.39134389695E+01  0.10286281070E+00 0.  0.
       11    1    1    2    0    0 -0.75271782207E-01  0.53915097830E-01  0.80859492772E+01  0.80864793732E+01  0.51109989000E-03 0.  1.
     -623    1    1    2    0    0 -0.49406006104E-01 -0.40581026344E-01  0.39737994407E-02  0.25126781657E+02  0.25126700000E+02 0.  1.
     -611    1    3    3    0    0  0.90674462029E-01 -0.54620092096E-01  0.28220356796E+01  0.28240379936E+01  0.10000000000E-01 0.  1.
      611    1    3    3    0    0  0.34003326282E-01  0.41286020611E-01  0.10880412330E+01  0.10894009759E+01  0.10000000000E-01 0. -1.
</event>
<event>
 7   0  0.6206631E-02  0.9118800E+02  0.7818608E-02  0.1180000E+00
       11   -1    0    0    0    0  0.00000000000E+00  0.00000000000E+00  0.11999999989E+02  0.12000000000E+02  0.51109989000E-03 0. -1.
     -623   -1    0    0    0    0  0.00000000000E+00  0.00000000000E+00  0.42561509872E-11  0.25126700000E+02  0.25126700000E+02 0. -1.
      622    2    1    2    0    0  0.39961394357E-02 -0.15527005389E-01  0.11911975515E+02  0.11912431590E+02  0.10299828947E+00 0.  0.
       11    1    1    2    0    0 -0.51527556308E-03  0.14645884411E-01  0.86331586876E-01  0.87568096672E-01  0.51109989000E-03 0. -1.
     -623    1    1    2    0    0 -0.34808638726E-02  0.88112097814E-03  0.16928870041E-02  0.25126700314E+02  0.25126700000E+02 0. -1.
     -611    1    3    3    0    0 -0.42010255339E-01  0.54751075323E-03  0.83137729521E+01  0.83138851243E+01  0.10000000000E-01 0. -1.
      611    1    3    3    0    0  0.46006394774E-01 -0.16074516142E-01  0.35982025632E+01  0.35985464654E+01  0.10000000000E-01 0.  1.
</event>
<event>
 7   0  0.6206631E-02  0.9118800E+02  0.7818608E-02  0.1180000E+00
       11   -1    0    0    0    0  0.00000000000E+00  0.00000000000E+00  0.11999999989E+02  0.12000000000E+02  0.51109989000E-03 0. -1.
     -623   -1    0    0    0    0  0.00000000000E+00  0.00000000000E+00  0.42561509872E-11  0.25126700000E+02  0.25126700000E+02 0.  1.
      622    2    1    2    0    0  0.12473283248E-01 -0.50620414516E-02  0.11545338122E+02  0.11545500357E+02  0.59707091382E-01 0.  0.
       11    1    1    2    0    0 -0.12075983711E-01  0.45134798757E-02  0.45431646776E+00  0.45449963144E+00  0.51109989000E-03 0. -1.
     -623    1    1    2    0    0 -0.39729953637E-03  0.54856157596E-03  0.34539937966E-03  0.25126700012E+02  0.25126700000E+02 0.  1.
     -611    1    3    3    0    0 -0.18959840461E-01 -0.12244922196E-01  0.32602877435E+01  0.32603812022E+01  0.10000000000E-01 0. -1.
      611    1    3    3    0    0  0.31433123709E-01  0.71828807439E-02  0.82850503786E+01  0.82851191549E+01  0.10000000000E-01 0. -1.
</event>
<event>
 7   0  0.6206631E-02  0.9118800E+02  0.7818608E-02  0.1180000E+00
       11   -1    0    0    0    0  0.00000000000E+00  0.00000000000E+00  0.11999999989E+02  0.12000000000E+02  0.51109989000E-03 0. -1.
     -623   -1    0    0    0    0  0.00000000000E+00  0.00000000000E+00  0.42561509872E-11  0.25126700000E+02  0.25126700000E+02 0. -1.
      622    2    1    2    0    0 -0.21751133138E-01 -0.48541028285E-01  0.11836956053E+02  0.11837308450E+02  0.74252146861E-01 0.  0.
       11    1    1    2    0    0  0.28756849962E-01  0.47066583801E-01  0.15305254448E+00  0.16268854393E+00  0.51109989000E-03 0. -1.
     -623    1    1    2    0    0 -0.70057168239E-02  0.14744444834E-02  0.99913913261E-02  0.25126703006E+02  0.25126700000E+02 0. -1.
     -611    1    3    3    0    0  0.12811426446E-01  0.44803184580E-02  0.85910277173E+00  0.85926816437E+00  0.10000000000E-01 0.  1.
      611    1    3    3    0    0 -0.34562559584E-01 -0.53021346743E-01  0.10977853282E+02  0.10978040285E+02  0.10000000000E-01 0. -1.
</event>
<event>
 7   0  0.6206631E-02  0.9118800E+02  0.7818608E-02  0.1180000E+00
       11   -1    0    0    0    0  0.00000000000E+00  0.00000000000E+00  0.11999999989E+02  0.12000000000E+02  0.51109989000E-03 0. -1.
     -623   -1    0    0    0    0  0.00000000000E+00  0.00000000000E+00  0.42561509872E-11  0.25126700000E+02  0.25126700000E+02 0. -1.
      622    2    1    2    0    0  0.48665749886E-02  0.14828396859E-01  0.11079647997E+02  0.11080207218E+02  0.11022112403E+00 0.  0.
       11    1    1    2    0    0 -0.93157989855E-02 -0.89033470833E-02  0.91970126732E+00  0.91979168078E+00  0.51109989000E-03 0. -1.
     -623    1    1    2    0    0  0.44492239969E-02 -0.59250497758E-02  0.65072471794E-03  0.25126701101E+02  0.25126700000E+02 0. -1.
     -611    1    3    3    0    0  0.41332066958E-01  0.17065398925E-01  0.21937081113E+01  0.21941866021E+01  0.10000000000E-01 0. -1.
      611    1    3    3    0    0 -0.36465491969E-01 -0.22370020654E-02  0.88859398858E+01  0.88860206162E+01  0.10000000000E-01 0.  1.
</event>
<event>
 7   0  0.6206631E-02  0.9118800E+02  0.7818608E-02  0.1180000E+00
       11   -1    0    0    0    0  0.00000000000E+00  0.00000000000E+00  0.11999999989E+02  0.12000000000E+02  0.51109989000E-03 0. -1.
     -623   -1    0    0    0    0  0.00000000000E+00  0.00000000000E+00  0.42561509872E-11  0.25126700000E+02  0.25126700000E+02 0. -1.
      622    2    1    2    0    0  0.28832919305E-02 -0.30236169600E-02  0.11963957585E+02  0.11964009485E+02  0.34991554239E-01 0.  0.
       11    1    1    2    0    0 -0.17964084428E-02  0.12744699533E-02  0.35919333571E-01  0.35990430731E-01  0.51109989000E-03 0. -1.
     -623    1    1    2    0    0 -0.10868834877E-02  0.17491470067E-02  0.12307109684E-03  0.25126700085E+02  0.25126700000E+02 0. -1.
     -611    1    3    3    0    0 -0.22795729503E-02  0.58761982209E-02  0.16672092320E+01  0.16672511357E+01  0.10000000000E-01 0. -1.
      611    1    3    3    0    0  0.51628648808E-02 -0.88998151809E-02  0.10296748353E+02  0.10296758349E+02  0.10000000000E-01 0. -1.
</event>
<event>
 7   0  0.6206631E-02  0.9118800E+02  0.7818608E-02  0.1180000E+00
       11   -1    0    0    0    0  0.00000000000E+00  0.00000000000E+00  0.11999999989E+02  0.12000000000E+02  0.51109989000E-03 0.  1.
     -623   -1    0    0    0    0  0.00000000000E+00  0.00000000000E+00  0.42561509872E-11  0.25126700000E+02  0.25126700000E+02 0.  1.
      622    2    1    2    0    0  0.97141200095E-03 -0.43740638697E-02  0.11963752692E+02  0.11964169898E+02  0.99813733832E-01 0.  0.
       11    1    1    2    0    0 -0.39065665005E-03  0.34711871165E-02  0.35655730292E-01  0.35830072263E-01  0.51109989000E-03 0.  1.
     -623    1    1    2    0    0 -0.58075535090E-03  0.90287675329E-03  0.59156634721E-03  0.25126700030E+02  0.25126700000E+02 0.  1.
     -611    1    3    3    0    0  0.14451661656E-01 -0.46110474130E-01  0.81982291966E+01  0.81983777045E+01  0.10000000000E-01 0. -1.
      611    1    3    3    0    0 -0.13480249655E-01  0.41736410260E-01  0.37655234959E+01  0.37657921933E+01  0.10000000000E-01 0.  1.
</event>
<event>
 7   0  0.6206631E-02  0.9118800E+02  0.7818608E-02  0.1180000E+00
       11   -1    0    0    0    0  0.00000000000E+00  0.00000000000E+00  0.11999999989E+02  0.12000000000E+02  0.51109989000E-03 0.  1.
     -623   -1    0    0    0    0  0.00000000000E+00  0.00000000000E+00  0.42561509872E-11  0.25126700000E+02  0.25126700000E+02 0. -1.
      622    2    1    2    0    0  0.12445948954E+00 -0.66753771748E-01  0.50072808620E+01  0.50108493938E+01  0.12571310984E+00 0.  0.
       11    1    1    2    0    0 -0.11830318478E+00  0.64435186230E-01  0.69878508690E+01  0.69891492734E+01  0.51109989000E-03 0.  1.
     -623    1    1    2    0    0 -0.61563047608E-02  0.23185855182E-02  0.48682580635E-02  0.25126701333E+02  0.25126700000E+02 0. -1.
     -611    1    3    3    0    0 -0.17066173185E-01  0.36663679908E-02  0.13382161487E+01  0.13383673476E+01  0.10000000000E-01 0. -1.
      611    1    3    3    0    0  0.14152566272E+00 -0.70420139739E-01  0.36690647133E+01  0.36724820462E+01  0.10000000000E-01 0.  1.
</event>
<event>
 7   0  0.6206631E-02  0.9118800E+02  0.7818608E-02  0.1180000E+00
       11   -1    0    0    0    0  0.00000000000E+00  0.00000000000E+00  0.11999999989E+02  0.12000000000E+02  0.51109989000E-03 0. -1.
     -623   -1    0    0    0    0  0.00000000000E+00  0.00000000000E+00  0.42561509872E-11  0.25126700000E+02  0.25126700000E+02 0. -1.
      622    2    1    2    0    0  0.16941714310E-02  0.23485708693E-02  0.11996903923E+02  0.11997337430E+02  0.10194748963E+00 0.  0.
       11    1    1    2    0    0 -0.17070127728E-02  0.25030969426E-03  0.19623092944E-02  0.26624102717E-02  0.51109989000E-03 0. -1.
     -623    1    1    2    0    0  0.12841341743E-04 -0.25988805635E-02  0.11337572923E-02  0.25126700160E+02  0.25126700000E+02 0. -1.
     -611    1    3    3    0    0  0.44318891316E-01  0.25327438935E-01  0.55400251242E+01  0.55402693094E+01  0.10000000000E-01 0. -1.
      611    1    3    3    0    0 -0.42624719885E-01 -0.22978868066E-01  0.64568787983E+01  0.64570681204E+01  0.10000000000E-01 0.  1.
</event>
<event>
 7   0  0.6206631E-02  0.9118800E+02  0.7818608E-02  0.1180000E+00
       11   -1    0    0    0    0  0.00000000000E+00  0.00000000000E+00  0.11999999989E+02  0.12000000000E+02  0.51109989000E-03 0. -1.
     -623   -1    0    0    0    0  0.00000000000E+00  0.00000000000E+00  0.42561509872E-11  0.25126700000E+02  0.25126700000E+02 0.  1.
      622    2    1    2    0    0  0.79652301846E-02 -0.80406076098E-02  0.11777700116E+02  0.11778113270E+02  0.98000402515E-01 0.  0.
       11    1    1    2    0    0 -0.11576980655E-01  0.88056125050E-02  0.22140859787E+00  0.22188644331E+00  0.51109989000E-03 0. -1.
     -623    1    1    2    0    0  0.36117504709E-02 -0.76500489516E-03  0.89127545329E-03  0.25126700287E+02  0.25126700000E+02 0.  1.
     -611    1    3    3    0    0  0.21686617817E-01  0.28069089489E-01  0.20494843018E+01  0.20498156226E+01  0.10000000000E-01 0. -1.
      611    1    3    3    0    0 -0.13721387633E-01 -0.36109697099E-01  0.97282158140E+01  0.97282976471E+01  0.10000000000E-01 0. -1.
</event>
<event>
 7   0  0.6206631E-02  0.9118800E+02  0.7818608E-02  0.1180000E+00
       11   -1    0    0    0    0  0.00000000000E+00  0.00000000000E+00  0.11999999989E+02  0.12000000000E+02  0.51109989000E-03 0.  1.
     -623   -1    0    0    0    0  0.00000000000E+00  0.00000000000E+00  0.42561509872E-11  0.25126700000E+02  0.25126700000E+02 0.  1.
      622    2    1    2    0    0  0.25366163319E-01  0.32226282746E-01  0.88537673934E+01  0.88542592376E+01  0.83830868964E-01 0.  0.
       11    1    1    2    0    0 -0.24949280525E-01 -0.32512474207E-01  0.31454737404E+01  0.31457407459E+01  0.51109989000E-03 0.  1.
     -623    1    1    2    0    0 -0.41688279466E-03  0.28619146113E-03  0.75885535301E-03  0.25126700017E+02  0.25126700000E+02 0.  1.
     -611    1    3    3    0    0  0.24241160862E-01 -0.74549036866E-02  0.69422840002E+01  0.69423375278E+01  0.10000000000E-01 0.  1.
      611    1    3    3    0    0  0.11250024579E-02  0.39681186433E-01  0.19114833931E+01  0.19119217098E+01  0.10000000000E-01 0. -1.
</event>
<event>
 7   0  0.6206631E-02  0.9118800E+02  0.7818608E-02  0.1180000E+00
       11   -1    0    0    0    0  0.00000000000E+00  0.00000000000E+00  0.11999999989E+02  0.12000000000E+02  0.51109989000E-03 0. -1.
     -623   -1    0    0    0    0  0.00000000000E+00  0.00000000000E+00  0.42561509872E-11  0.25126700000E+02  0.25126700000E+02 0. -1.
      622    2    1    2    0    0 -0.31598701076E-02  0.13710829854E-01  0.11915616682E+02  0.11915857869E+02  0.74497360754E-01 0.  0.
       11    1    1    2    0    0  0.57095830066E-02  0.37144152263E-02  0.83858221579E-01  0.84135954075E-01  0.51109989000E-03 0. -1.
     -623    1    1    2    0    0 -0.25497128990E-02 -0.17425245081E-01  0.52508506366E-03  0.25126706177E+02  0.25126700000E+02 0. -1.
     -611    1    3    3    0    0 -0.31814182499E-01 -0.12589457988E-01  0.56951951021E+01  0.56953066544E+01  0.10000000000E-01 0.  1.
      611    1    3    3    0    0  0.28654312392E-01  0.26300287842E-01  0.62204215804E+01  0.62205512146E+01  0.10000000000E-01 0. -1.
</event>
<event>
 7   0  0.6206631E-02  0.9118800E+02  0.7818608E-02  0.1180000E+00
       11   -1    0    0    0    0  0.00000000000E+00  0.00000000000E+00  0.11999999989E+02  0.12000000000E+02  0.51109989000E-03 0.  1.
     -623   -1    0    0    0    0  0.00000000000E+00  0.00000000000E+00  0.42561509872E-11  0.25126700000E+02  0.25126700000E+02 0. -1.
      622    2    1    2    0    0 -0.24745780854E-01 -0.47304218590E-02  0.98295423092E+01  0.98300537326E+01  0.97054871538E-01 0.  0.
       11    1    1    2    0    0  0.19883715941E-01  0.39542706537E-02  0.21698510129E+01  0.21699457777E+01  0.51109989000E-03 0.  1.
     -623    1    1    2    0    0  0.48620649129E-02  0.77615120531E-03  0.60666702434E-03  0.25126700490E+02  0.25126700000E+02 0. -1.
     -611    1    3    3    0    0  0.46834850116E-02 -0.42523345448E-01  0.28363930138E+01  0.28367332442E+01  0.10000000000E-01 0. -1.
      611    1    3    3    0    0 -0.29429265866E-01  0.37792923589E-01  0.69931492954E+01  0.69933204885E+01  0.10000000000E-01 0.  1.
</event>
<event>
 7   0  0.6206631E-02  0.9118800E+02  0.7818608E-02  0.1180000E+00
       11   -1    0    0    0    0  0.00000000000E+00  0.00000000000E+00  0.11999999989E+02  0.12000000000E+02  0.51109989000E-03 0. -1.
     -623   -1    0    0    0    0  0.00000000000E+00  0.00000000000E+00  0.42561509872E-11  0.25126700000E+02  0.25126700000E+02 0.  1.
      622    2    1    2    0    0 -0.43001242969E-01 -0.46623123854E-02  0.10635011177E+02  0.10635482673E+02  0.90322353832E-01 0.  0.
       11    1    1    2    0    0  0.41776136549E-01  0.13657202425E-01  0.13638075221E+01  0.13645156589E+01  0.51109989000E-03 0. -1.
     -623    1    1    2    0    0  0.12251064202E-02 -0.89948900392E-02  0.11812904217E-02  0.25126701668E+02  0.25126700000E+02 0.  1.
     -611    1    3    3    0    0 -0.59023416048E-02 -0.19796021319E-01  0.68239933162E+00  0.68278515500E+00  0.10000000000E-01 0.  1.
      611    1    3    3    0    0 -0.37098901365E-01  0.15133708934E-01  0.99526118449E+01  0.99526975184E+01  0.10000000000E-01 0. -1.
</event>
<event>
 7   0  0.6206631E-02  0.9118800E+02  0.7818608E-02  0.1180000E+00
       11   -1    0    0    0    0  0.00000000000E+00  0.00000000000E+00  0.11999999989E+02  0.12000000000E+02  0.51109989000E-03 0. -1.
     -623   -1    0    0    0    0  0.00000000000E+00  0.00000000000E+00  0.42561509872E-11  0.25126700000E+02  0.25126700000E+02 0. -1.
      622    2    1    2    0    0  0.83825341385E-02 -0.64294779925E-02  0.11699747737E+02  0.11700152112E+02  0.96699138685E-01 0.  0.
       11    1    1    2    0    0 -0.80976778398E-02  0.72057321667E-02  0.29965144275E+00  0.29984786698E+00  0.51109989000E-03 0. -1.
     -623    1    1    2    0    0 -0.28485629873E-03 -0.77625417424E-03  0.60080887353E-03  0.25126700021E+02  0.25126700000E+02 0. -1.
     -611    1    3    3    0    0  0.21106768267E-01  0.15432386042E-01  0.10599335691E+01  0.10603031760E+01  0.10000000000E-01 0.  1.
      611    1    3    3    0    0 -0.12724234129E-01 -0.21861864034E-01  0.10639814168E+02  0.10639848936E+02  0.10000000000E-01 0. -1.
</event>
<event>
 7   0  0.6206631E-02  0.9118800E+02  0.7818608E-02  0.1180000E+00
       11   -1    0    0    0    0  0.00000000000E+00  0.00000000000E+00  0.11999999989E+02  0.12000000000E+02  0.51109989000E-03 0. -1.
     -623   -1    0    0    0    0  0.00000000000E+00  0.00000000000E+00  0.42561509872E-11  0.25126700000E+02  0.25126700000E+02 0.  1.
      622    2    1    2    0    0 -0.12367785170E-03  0.39802580852E-01  0.11040611488E+02  0.11041257105E+02  0.11257064787E+00 0.  0.
       11    1    1    2    0    0  0.35785811129E-01 -0.44387387515E-02  0.95801411104E+00  0.95869266445E+00  0.51109989000E-03 0. -1.
     -623    1    1    2    0    0 -0.35662133277E-01 -0.35363842101E-01  0.13743896348E-02  0.25126750231E+02  0.25126700000E+02 0.  1.
     -611    1    3    3    0    0 -0.21696692081E-01  0.71154244239E-01  0.86097847080E+01  0.86101118687E+01  0.10000000000E-01 0. -1.
      611    1    3    3    0    0  0.21573014230E-01 -0.31351663387E-01  0.24308267804E+01  0.24311452359E+01  0.10000000000E-01 0. -1.
</event>
<event>
 7   0  0.6206631E-02  0.9118800E+02  0.7818608E-02  0.1180000E+00
       11   -1    0    0    0    0  0.00000000000E+00  0.00000000000E+00  0.11999999989E+02  0.12000000000E+02  0.51109989000E-03 0.  1.
     -623   -1    0    0    0    0  0.00000000000E+00  0.00000000000E+00  0.42561509872E-11  0.25126700000E+02  0.25126700000E+02 0. -1.
      622    2    1    2    0    0 -0.25850106309E-02 -0.24176958445E-02  0.11970365662E+02  0.11971189487E+02  0.14039628218E+00 0.  0.
       11    1    1    2    0    0  0.29007551341E-02 -0.15428426064E-02  0.28617659147E-01  0.28810178441E-01  0.51109989000E-03 0.  1.
     -623    1    1    2    0    0 -0.31574450323E-03  0.39605384508E-02  0.10166677636E-02  0.25126700335E+02  0.25126700000E+02 0. -1.
     -611    1    3    3    0    0  0.54890884160E-01  0.59572522074E-02  0.24544156849E+01  0.24550569958E+01  0.10000000000E-01 0. -1.
      611    1    3    3    0    0 -0.57475894791E-01 -0.83749480519E-02  0.95159499773E+01  0.95161324911E+01  0.10000000000E-01 0.  1.
</event>
<event>
 7   0  0.6206631E-02  0.9118800E+02  0.7818608E-02  0.1180000E+00
       11   -1    0    0    0    0  0.00000000000E+00  0.00000000000E+00  0.11999999989E+02  0.12000000000E+02  0.51109989000E-03 0.  1.
     -623   -1    0    0    0    0  0.00000000000E+00  0.00000000000E+00  0.42561509872E-11  0.25126700000E+02  0.25126700000E+02 0.  1.
      622    2    1    2    0    0  0.33619141725E-01 -0.25197754089E-01  0.10899302850E+02  0.10899938918E+02  0.11000287584E+00 0.  0.
       11    1    1    2    0    0 -0.36176496232E-01  0.26435885976E-01  0.10991478830E+01  0.11000608732E+01  0.51109989000E-03 0.  1.
     -623    1    1    2    0    0  0.25573545064E-02 -0.12381318873E-02  0.15492560654E-02  0.25126700208E+02  0.25126700000E+02 0.  1.
     -611    1    3    3    0    0 -0.34725092188E-01 -0.32097146078E-01  0.45218269703E+01  0.45220852721E+01  0.10000000000E-01 0.  1.
      611    1    3    3    0    0  0.68344233914E-01  0.68993919891E-02  0.63774758798E+01  0.63778536463E+01  0.10000000000E-01 0. -1.
</event>
<event>
 7   0  0.6206631E-02  0.9118800E+02  0.7818608E-02  0.1180000E+00
       11   -1    0    0    0    0  0.00000000000E+00  0.00000000000E+00  0.11999999989E+02  0.12000000000E+02  0.51109989000E-03 0. -1.
     -623   -1    0    0    0    0  0.00000000000E+00  0.00000000000E+00  0.42561509872E-11  0.25126700000E+02  0.25126700000E+02 0. -1.
      622    2    1    2    0    0 -0.17459531073E-01  0.68406097240E-02  0.11656820365E+02  0.11657025438E+02  0.66553736168E-01 0.  0.
       11    1    1    2    0    0 -0.97755673889E-02 -0.40610271994E-01  0.34038322089E+00  0.34293695367E+00  0.51109989000E-03 0. -1.
     -623    1    1    2    0    0  0.27235098462E-01  0.33769662270E-01  0.27964030009E-02  0.25126737609E+02  0.25126700000E+02 0. -1.
     -611    1    3    3    0    0  0.18688738644E-01  0.59080852388E-02  0.18121837232E+01  0.18123173069E+01  0.10000000000E-01 0.  1.
      611    1    3    3    0    0 -0.36148269717E-01  0.93252448523E-03  0.98446366420E+01  0.98447081308E+01  0.10000000000E-01 0. -1.
</event>
<event>
 7   0  0.6206631E-02  0.9118800E+02  0.7818608E-02  0.1180000E+00
       11   -1    0    0    0    0  0.00000000000E+00  0.00000000000E+00  0.11999999989E+02  0.12000000000E+02  0.51109989000E-03 0.  1.
     -623   -1    0    0    0    0  0.00000000000E+00  0.00000000000E+00  0.42561509872E-11  0.25126700000E+02  0.25126700000E+02 0.  1.
      622    2    1    2    0    0 -0.37408118235E-02  0.51077118423E-01  0.98987276486E+01  0.99003661109E+01  0.17267658662E+00 0.  0.
       11    1    1    2    0    0  0.64305089849E-02 -0.50531203835E-01  0.20990155783E+01  0.20996336378E+01  0.51109989000E-03 0.  1.
     -623    1    1    2    0    0 -0.26896971613E-02 -0.54591458819E-03  0.22567622311E-02  0.25126700251E+02  0.25126700000E+02 0.  1.
     -611    1    3    3    0    0  0.42070304055E-01 -0.51131831739E-01  0.32840816757E+01  0.32847643488E+01  0.10000000000E-01 0. -1.
      611    1    3    3    0    0 -0.45811115879E-01  0.10220895016E+00  0.66146459729E+01  0.66156017621E+01  0.10000000000E-01 0.  1.
</event>
<event>
 7   0  0.6206631E-02  0.9118800E+02  0.7818608E-02  0.1180000E+00
       11   -1    0    0    0    0  0.00000000000E+00  0.00000000000E+00  0.11999999989E+02  0.12000000000E+02  0.51109989000E-03 0. -1.
     -623   -1    0    0    0    0  0.00000000000E+00  0.00000000000E+00  0.42561509872E-11  0.25126700000E+02  0.25126700000E+02 0. -1.
      622    2    1    2    0    0 -0.24296653929E-01 -0.77195761135E-01  0.10992098191E+02  0.10993039912E+02  0.11897202769E+00 0.  0.
       11    1    1    2    0    0  0.24897675482E-01  0.10588662941E+00  0.10010502489E+01  0.10069427663E+01  0.51109989000E-03 0. -1.
     -623    1    1    2    0    0 -0.60102155247E-03 -0.28690868274E-01  0.68515486803E-02  0.25126717322E+02  0.25126700000E+02 0. -1.
     -611    1    3    3    0    0 -0.28679540704E-01 -0.32105670058E-01  0.97131579730E+01  0.97132585211E+01  0.10000000000E-01 0. -1.
      611    1    3    3    0    0  0.43828867748E-02 -0.45090091077E-01  0.12789402185E+01  0.12797813909E+01  0.10000000000E-01 0.  1.
</event>
<event>
 7   0  0.6206631E-02  0.9118800E+02  0.7818608E-02  0.1180000E+00
       11   -1    0    0    0    0  0.00000000000E+00  0.00000000000E+00  0.11999999989E+02  0.12000000000E+02  0.51109989000E-03 0.  1.
     -623   -1    0    0    0    0  0.00000000000E+00  0.00000000000E+00  0.42561509872E-11  0.25126700000E+02  0.25126700000E+02 0. -1.
      622    2    1    2    0    0  0.49372787064E-02 -0.17492497679E-01  0.11810084899E+02  0.11810473926E+02  0.94120491381E-01 0.  0.
       11    1    1    2    0    0 -0.22914643676E-01  0.32447900348E-02  0.18809643309E+00  0.18951553742E+00  0.51109989000E-03 0.  1.
     -623    1    1    2    0    0  0.17977364970E-01  0.14247707645E-01  0.18186566792E-02  0.25126710536E+02  0.25126700000E+02 0. -1.
     -611    1    3    3    0    0  0.45345433461E-01 -0.56084372029E-02  0.81275975119E+01  0.81277320932E+01  0.10000000000E-01 0.  1.
      611    1    3    3    0    0 -0.40408154754E-01 -0.11884060476E-01  0.36824873874E+01  0.36827418330E+01  0.10000000000E-01 0. -1.
</event>
<event>
 7   0  0.6206631E-02  0.9118800E+02  0.7818608E-02  0.1180000E+00
       11   -1    0    0    0    0  0.00000000000E+00  0.00000000000E+00  0.11999999989E+02  0.12000000000E+02  0.51109989000E-03 0. -1.
     -623   -1    0    0    0    0  0.00000000000E+00  0.00000000000E+00  0.42561509872E-11  0.25126700000E+02  0.25126700000E+02 0.  1.
      622    2    1    2    0    0  0.24277091743E-02  0.60955288946E-02  0.11985944053E+02  0.11986464230E+02  0.11147575805E+00 0.  0.
       11    1    1    2    0    0  0.82890736561E-02  0.76869130035E-03  0.10656582610E-01  0.13532317039E-01  0.51109989000E-03 0. -1.
     -623    1    1    2    0    0 -0.10716782830E-01 -0.68642201949E-02  0.33993534359E-02  0.25126703453E+02  0.25126700000E+02 0.  1.
     -611    1    3    3    0    0 -0.41642032489E-01 -0.58567540302E-02  0.22924114652E+01  0.22928189388E+01  0.10000000000E-01 0.  1.
      611    1    3    3    0    0  0.44069741664E-01  0.11952282925E-01  0.96935325878E+01  0.96936452912E+01  0.10000000000E-01 0. -1.
</event>
<event>
 7   0  0.6206631E-02  0.9118800E+02  0.7818608E-02  0.1180000E+00
       11   -1    0    0    0    0  0.00000000000E+00  0.00000000000E+00  0.11999999989E+02  0.12000000000E+02  0.51109989000E-03 0.  1.
     -623   -1    0    0    0    0  0.00000000000E+00  0.00000000000E+00  0.42561509872E-11  0.25126700000E+02  0.25126700000E+02 0. -1.
      622    2    1    2    0    0  0.36467722647E-02  0.11322078696E-01  0.11809499684E+02  0.11809949632E+02  0.10240129498E+00 0.  0.
       11    1    1    2    0    0 -0.14149456148E-01  0.79934501742E-02  0.18934390029E+00  0.19004072236E+00  0.51109989000E-03 0.  1.
     -623    1    1    2    0    0  0.10502683883E-01 -0.19315528870E-01  0.11564045309E-02  0.25126709646E+02  0.25126700000E+02 0. -1.
     -611    1    3    3    0    0 -0.19765663203E-01 -0.39823713127E-01  0.47362174470E+01  0.47364366685E+01  0.10000000000E-01 0.  1.
      611    1    3    3    0    0  0.23412435468E-01  0.51145791822E-01  0.70732822373E+01  0.70735129634E+01  0.10000000000E-01 0. -1.
</event>
<event>
 7   0  0.6206631E-02  0.9118800E+02  0.7818608E-02  0.1180000E+00
       11   -1    0    0    0    0  0.00000000000E+00  0.00000000000E+00  0.11999999989E+02  0.12000000000E+02  0.51109989000E-03 0.  1.
     -623   -1    0    0    0    0  0.00000000000E+00  0.00000000000E+00  0.42561509872E-11  0.25126700000E+02  0.25126700000E+02 0. -1.
      622    2    1    2    0    0  0.68808206321E-02 -0.67712432144E-02  0.11441705181E+02  0.11442231141E+02  0.10928337191E+00 0.  0.
       11    1    1    2    0    0 -0.36950169195E-02  0.10860504953E-01  0.55765009552E+00  0.55776831568E+00  0.51109989000E-03 0.  1.
     -623    1    1    2    0    0 -0.31858037126E-02 -0.40892617382E-02  0.64471295168E-03  0.25126700543E+02  0.25126700000E+02 0. -1.
     -611    1    3    3    0    0 -0.43915862458E-01 -0.25742184693E-01  0.68143973429E+01  0.68145948089E+01  0.10000000000E-01 0.  1.
      611    1    3    3    0    0  0.50796683090E-01  0.18970941478E-01  0.46273078378E+01  0.46276363324E+01  0.10000000000E-01 0. -1.
</event>
<event>
 7   0  0.6206631E-02  0.9118800E+02  0.7818608E-02  0.1180000E+00
       11   -1    0    0    0    0  0.00000000000E+00  0.00000000000E+00  0.11999999989E+02  0.12000000000E+02  0.51109989000E-03 0.  1.
     -623   -1    0    0    0    0  0.00000000000E+00  0.00000000000E+00  0.42561509872E-11  0.25126700000E+02  0.25126700000E+02 0. -1.
      622    2    1    2    0    0  0.15789054452E-01  0.23203557384E-01  0.11500830095E+02  0.11501544107E+02  0.12504510569E+00 0.  0.
       11    1    1    2    0    0 -0.16527805730E-01 -0.16099483135E-01  0.49792028631E+00  0.49845484697E+00  0.51109989000E-03 0.  1.
     -623    1    1    2    0    0  0.73875127841E-03 -0.71040742484E-02  0.12496082598E-02  0.25126701046E+02  0.25126700000E+02 0. -1.
     -611    1    3    3    0    0  0.17314667313E-01  0.40489409916E-01  0.11179109135E+02  0.11179200340E+02  0.10000000000E-01 0.  1.
      611    1    3    3    0    0 -0.15256128613E-02 -0.17285852532E-01  0.32172095967E+00  0.32234376693E+00  0.10000000000E-01 0.  1.
</event>
<event>
 7   0  0.6206631E-02  0.9118800E+02  0.7818608E-02  0.1180000E+00
       11   -1    0    0    0    0  0.00000000000E+00  0.00000000000E+00  0.11999999989E+02  0.12000000000E+02  0.51109989000E-03 0. -1.
     -623   -1    0    0    0    0  0.00000000000E+00  0.00000000000E+00  0.42561509872E-11  0.25126700000E+02  0.25126700000E+02 0. -1.
      622    2    1    2    0    0  0.98892715804E-03 -0.13530541515E-02  0.11989631552E+02  0.11990809483E+02  0.16806101534E+00 0.  0.
       11    1    1    2    0    0 -0.22424504462E-02 -0.23105398075E-02  0.85924711131E-02  0.91901556664E-02  0.51109989000E-03 0. -1.
     -623    1    1    2    0    0  0.12535232882E-02  0.36635939590E-02  0.17759661528E-02  0.25126700361E+02  0.25126700000E+02 0. -1.
     -611    1    3    3    0    0  0.72856402727E-01  0.22930677240E-01  0.35737493038E+01  0.35745794100E+01  0.10000000000E-01 0.  1.
      611    1    3    3    0    0 -0.71867475569E-01 -0.24283731392E-01  0.84158822480E+01  0.84162300733E+01  0.10000000000E-01 0. -1.
</event>
<event>
 7   0  0.6206631E-02  0.9118800E+02  0.7818608E-02  0.1180000E+00
       11   -1    0    0    0    0  0.00000000000E+00  0.00000000000E+00  0.11999999989E+02  0.12000000000E+02  0.51109989000E-03 0. -1.
     -623   -1    0    0    0    0  0.00000000000E+00  0.00000000000E+00  0.42561509872E-11  0.25126700000E+02  0.25126700000E+02 0. -1.
      622    2    1    2    0    0 -0.95288994766E-02  0.15063820360E-01  0.10125577553E+02  0.10125938646E+02  0.83635883995E-01 0.  0.
       11    1    1    2    0    0  0.16519061789E-01 -0.71724868620E-02  0.18739725371E+01  0.18740591386E+01  0.51109989000E-03 0. -1.
     -623    1    1    2    0    0 -0.69901623125E-02 -0.78913334978E-02  0.44989910626E-03  0.25126702216E+02  0.25126700000E+02 0. -1.
     -611    1    3    3    0    0 -0.33707885161E-01  0.34249324361E-01  0.45036393715E+01  0.45039068403E+01  0.10000000000E-01 0.  1.
      611    1    3    3    0    0  0.24178985684E-01 -0.19185504002E-01  0.56219381814E+01  0.56220318055E+01  0.10000000000E-01 0. -1.
</event>
<event>
 7   0  0.6206631E-02  0.9118800E+02  0.7818608E-02  0.1180000E+00
       11   -1    0    0    0    0  0.00000000000E+00  0.00000000000E+00  0.11999999989E+02  0.12000000000E+02  0.51109989000E-03 0. -1.
     -623   -1    0    0    0    0  0.00000000000E+00  0.00000000000E+00  0.42561509872E-11  0.25126700000E+02  0.25126700000E+02 0.  1.
      622    2    1    2    0    0  0.23458312889E-02  0.20439279957E-01  0.81382258429E+01  0.81387578476E+01  0.90753324628E-01 0.  0.
       11    1    1    2    0    0 -0.39563795362E-02  0.16420122099E-01  0.38611780835E+01  0.38612150584E+01  0.51109989000E-03 0. -1.
     -623    1    1    2    0    0  0.16105482473E-02 -0.36859402056E-01  0.59606274161E-03  0.25126727094E+02  0.25126700000E+02 0.  1.
     -611    1    3    3    0    0 -0.27446254380E-02  0.10230179831E-01  0.20475510305E+00  0.20527260356E+00  0.10000000000E-01 0. -1.
      611    1    3    3    0    0  0.50904567269E-02  0.10209100126E-01  0.79334707398E+01  0.79334852441E+01  0.10000000000E-01 0. -1.
</event>
<event>
 7   0  0.6206631E-02  0.9118800E+02  0.7818608E-02  0.1180000E+00
       11   -1    0    0    0    0  0.00000000000E+00  0.00000000000E+00  0.11999999989E+02  0.12000000000E+02  0.51109989000E-03 0.  1.
     -623   -1    0    0    0    0  0.00000000000E+00  0.00000000000E+00  0.42561509872E-11  0.25126700000E+02  0.25126700000E+02 0. -1.
      622    2    1    2    0    0  0.98152260595E-03 -0.14702857055E-02  0.11988203074E+02  0.11988597085E+02  0.97180244318E-01 0.  0.
       11    1    1    2    0    0  0.31217059273E-03  0.15998847202E-02  0.11274186285E-01  0.11402876002E-01  0.51109989000E-03 0.  1.
     -623    1    1    2    0    0 -0.12936931987E-02 -0.12959901464E-03  0.52272899662E-03  0.25126700039E+02  0.25126700000E+02 0. -1.
     -611    1    3    3    0    0  0.85654268980E-02  0.21444390209E-01  0.87128895049E+00  0.87165226074E+00  0.10000000000E-01 0.  1.
      611    1    3    3    0    0 -0.75839042921E-02 -0.22914675914E-01  0.11116914123E+02  0.11116944824E+02  0.10000000000E-01 0.  1.
</event>
<event>
 7   0  0.6206631E-02  0.9118800E+02  0.7818608E-02  0.1180000E+00
       11   -1    0    0    0    0  0.00000000000E+00  0.00000000000E+00  0.11999999989E+02  0.12000000000E+02  0.51109989000E-03 0.  1.
     -623   -1    0    0    0    0  0.00000000000E+00  0.00000000000E+00  0.42561509872E-11  0.25126700000E+02  0.25126700000E+02 0.  1.
      622    2    1    2    0    0  0.25897021218E-01  0.15191799991E-01  0.76688697616E+01  0.76697780831E+01  0.11415330611E+00 0.  0.
       11    1    1    2    0    0 -0.26129214357E-01 -0.13249041211E-01  0.43301226866E+01  0.43302218205E+01  0.51109989000E-03 0.  1.
     -623    1    1    2    0    0  0.23219313945E-03 -0.19427587794E-02  0.10075409600E-02  0.25126700096E+02  0.25126700000E+02 0.  1.
     -611    1    3    3    0    0  0.15798549621E-01  0.31269042170E-01  0.75804014289E+00  0.75891515033E+00  0.10000000000E-01 0. -1.
      611    1    3    3    0    0  0.10098471596E-01 -0.16077242179E-01  0.69108296187E+01  0.69108629328E+01  0.10000000000E-01 0.  1.
</event>
<event>
 7   0  0.6206631E-02  0.9118800E+02  0.7818608E-02  0.1180000E+00
       11   -1    0    0    0    0  0.00000000000E+00  0.00000000000E+00  0.11999999989E+02  0.12000000000E+02  0.51109989000E-03 0.  1.
     -623   -1    0    0    0    0  0.00000000000E+00  0.00000000000E+00  0.42561509872E-11  0.25126700000E+02  0.25126700000E+02 0. -1.
      622    2    1    2    0    0  0.15085691975E-01 -0.67106927438E-02  0.11511229055E+02  0.11511734766E+02  0.10663184697E+00 0.  0.
       11    1    1    2    0    0 -0.73287395751E-02  0.10503477858E-01  0.48809546892E+00  0.48826374171E+00  0.51109989000E-03 0.  1.
     -623    1    1    2    0    0 -0.77569524000E-02 -0.37927851143E-02  0.67546542276E-03  0.25126701493E+02  0.25126700000E+02 0. -1.
     -611    1    3    3    0    0 -0.41856458974E-01  0.11725887085E-01  0.61646984953E+01  0.61648598522E+01  0.10000000000E-01 0.  1.
      611    1    3    3    0    0  0.56942150950E-01 -0.18436579829E-01  0.53465305595E+01  0.53468749134E+01  0.10000000000E-01 0. -1.
</event>
<event>
 7   0  0.6206631E-02  0.9118800E+02  0.7818608E-02  0.1180000E+00
       11   -1    0    0    0    0  0.00000000000E+00  0.00000000000E+00  0.11999999989E+02  0.12000000000E+02  0.51109989000E-03 0. -1.
     -623   -1    0    0    0    0  0.00000000000E+00  0.00000000000E+00  0.42561509872E-11  0.25126700000E+02  0.25126700000E+02 0. -1.
      622    2    1    2    0    0  0.26326058796E-01 -0.14735825793E-01  0.63948516458E+01  0.63950985551E+01  0.47410456372E-01 0.  0.
       11    1    1    2    0    0  0.12288406422E-01  0.33044877004E-01  0.56047541925E+01  0.56048650999E+01  0.51109989000E-03 0. -1.
     -623    1    1    2    0    0 -0.38614465219E-01 -0.18309051211E-01  0.39415067227E-03  0.25126736345E+02  0.25126700000E+02 0. -1.
     -611    1    3    3    0    0 -0.46769344473E-03 -0.81849292464E-02  0.48001505611E+00  0.48018919802E+00  0.10000000000E-01 0.  1.
      611    1    3    3    0    0  0.26793752241E-01 -0.65508965466E-02  0.59148365897E+01  0.59149093571E+01  0.10000000000E-01 0. -1.
</event>
<event>
 7   0  0.6206631E-02  0.9118800E+02  0.7818608E-02  0.1180000E+00
       11   -1    0    0    0    0  0.00000000000E+00  0.00000000000E+00  0.11999999989E+02  0.12000000000E+02  0.51109989000E-03 0. -1.
     -623   -1    0    0    0    0  0.00000000000E+00  0.00000000000E+00  0.42561509872E-11  0.25126700000E+02  0.25126700000E+02 0.  1.
      622    2    1    2    0    0  0.77403025270E-02  0.89855002087E-04  0.11773317306E+02  0.11773937426E+02  0.12059103678E+00 0.  0.
       11    1    1    2    0    0 -0.29203242408E-02  0.91402902923E-02  0.22585608544E+00  0.22606040288E+00  0.51109989000E-03 0. -1.
     -623    1    1    2    0    0 -0.48199782862E-02 -0.92301452943E-02  0.82659756816E-03  0.25126702171E+02  0.25126700000E+02 0.  1.
     -611    1    3    3    0    0 -0.22862276621E-01 -0.28625435861E-01  0.10077278908E+02  0.10077350459E+02  0.10000000000E-01 0. -1.
      611    1    3    3    0    0  0.30602579148E-01  0.28715290863E-01  0.16960383984E+01  0.16965869664E+01  0.10000000000E-01 0.  1.
</event>
<event>
 7   0  0.6206631E-02  0.9118800E+02  0.7818608E-02  0.1180000E+00
       11   -1    0    0    0    0  0.00000000000E+00  0.00000000000E+00  0.11999999989E+02  0.12000000000E+02  0.51109989000E-03 0. -1.
     -623   -1    0    0    0    0  0.00000000000E+00  0.00000000000E+00  0.42561509872E-11  0.25126700000E+02  0.25126700000E+02 0.  1.
      622    2    1    2    0    0  0.22032911400E-01  0.23516027966E-01  0.11289281888E+02  0.11289663838E+02  0.87095149718E-01 0.  0.
       11    1    1    2    0    0 -0.45153631829E-01 -0.42633546268E-01  0.70759805912E+00  0.71031805850E+00  0.51109989000E-03 0. -1.
     -623    1    1    2    0    0  0.23120720429E-01  0.19117518302E-01  0.31200419152E-02  0.25126718104E+02  0.25126700000E+02 0.  1.
     -611    1    3    3    0    0  0.22418381105E-01  0.52125217523E-01  0.54798287599E+01  0.54801316462E+01  0.10000000000E-01 0. -1.
      611    1    3    3    0    0 -0.38546970509E-03 -0.28609189557E-01  0.58094531282E+01  0.58095321914E+01  0.10000000000E-01 0.  1.
</event>
<event>
 7   0  0.6206631E-02  0.9118800E+02  0.7818608E-02  0.1180000E+00
       11   -1    0    0    0    0  0.00000000000E+00  0.00000000000E+00  0.11999999989E+02  0.12000000000E+02  0.51109989000E-03 0.  1.
     -623   -1    0    0    0    0  0.00000000000E+00  0.00000000000E+00  0.42561509872E-11  0.25126700000E+02  0.25126700000E+02 0.  1.
      622    2    1    2    0    0 -0.32924479674E-01 -0.49083738313E-02  0.11741106309E+02  0.11741727864E+02  0.11613681338E+00 0.  0.
       11    1    1    2    0    0  0.33252068078E-01  0.64971974334E-02  0.25603947062E+00  0.25827192132E+00  0.51109989000E-03 0.  1.
     -623    1    1    2    0    0 -0.32758840339E-03 -0.15888236021E-02  0.28542092975E-02  0.25126700214E+02  0.25126700000E+02 0.  1.
     -611    1    3    3    0    0  0.14117141844E-01  0.32772909467E-01  0.15671534808E+01  0.15675915889E+01  0.10000000000E-01 0. -1.
      611    1    3    3    0    0 -0.47041621518E-01 -0.37681283299E-01  0.10173952828E+02  0.10174136275E+02  0.10000000000E-01 0.  1.
</event>
<event>
 7   0  0.6206631E-02  0.9118800E+02  0.7818608E-02  0.1180000E+00
       11   -1    0    0    0    0  0.00000000000E+00  0.00000000000E+00  0.11999999989E+02  0.12000000000E+02  0.51109989000E-03 0.  1.
     -623   -1    0    0    0    0  0.00000000000E+00  0.00000000000E+00  0.42561509872E-11  0.25126700000E+02  0.25126700000E+02 0. -1.
      622    2    1    2    0    0 -0.82115266056E-02 -0.36098266789E-01  0.78691109925E+01  0.78699974883E+01  0.11217013465E+00 0.  0.
       11    1    1    2    0    0  0.10224093863E-01  0.29126833918E-01  0.41298860470E+01  0.41300014440E+01  0.51109989000E-03 0.  1.
     -623    1    1    2    0    0 -0.20125672572E-02  0.69714328710E-02  0.10029495698E-02  0.25126701068E+02  0.25126700000E+02 0. -1.
     -611    1    3    3    0    0 -0.16896461044E-01  0.23532835997E-01  0.75187429266E+00  0.75249866228E+00  0.10000000000E-01 0. -1.
      611    1    3    3    0    0  0.86849344387E-02 -0.59631102786E-01  0.71172366999E+01  0.71174988260E+01  0.10000000000E-01 0.  1.
</event>
<event>
 7   0  0.6206631E-02  0.9118800E+02  0.7818608E-02  0.1180000E+00
       11   -1    0    0    0    0  0.00000000000E+00  0.00000000000E+00  0.11999999989E+02  0.12000000000E+02  0.51109989000E-03 0.  1.
     -623   -1    0    0    0    0  0.00000000000E+00  0.00000000000E+00  0.42561509872E-11  0.25126700000E+02  0.25126700000E+02 0.  1.
      622    2    1    2    0    0  0.39949260670E-02  0.31692716696E-04  0.11175795284E+02  0.11175956631E+02  0.59920091351E-01 0.  0.
       11    1    1    2    0    0 -0.11924317780E-02 -0.46023504776E-02  0.82402892298E+00  0.82404279662E+00  0.51109989000E-03 0.  1.
     -623    1    1    2    0    0 -0.28024942891E-02  0.45706577609E-02  0.17578190717E-03  0.25126700573E+02  0.25126700000E+02 0.  1.
     -611    1    3    3    0    0  0.33049517190E-02 -0.21188076644E-01  0.90651549291E+01  0.90651858087E+01  0.10000000000E-01 0.  1.
      611    1    3    3    0    0  0.68997434808E-03  0.21219769361E-01  0.21106403552E+01  0.21107708221E+01  0.10000000000E-01 0. -1.
</event>
<event>
 7   0  0.6206631E-02  0.9118800E+02  0.7818608E-02  0.1180000E+00
       11   -1    0    0    0    0  0.00000000000E+00  0.00000000000E+00  0.11999999989E+02  0.12000000000E+02  0.51109989000E-03 0. -1.
     -623   -1    0    0    0    0  0.00000000000E+00  0.00000000000E+00  0.42561509872E-11  0.25126700000E+02  0.25126700000E+02 0. -1.
      622    2    1    2    0    0  0.17465541769E-01  0.42281108341E-01  0.94499547781E+01  0.94505520937E+01  0.95900104146E-01 0.  0.
       11    1    1    2    0    0 -0.68974650633E-01 -0.74021061365E-01  0.25473664056E+01  0.25493749205E+01  0.51109989000E-03 0. -1.
     -623    1    1    2    0    0  0.51509108864E-01  0.31739953024E-01  0.26788054366E-02  0.25126772986E+02  0.25126700000E+02 0. -1.
     -611    1    3    3    0    0  0.39731226817E-01 -0.76273248484E-02  0.60490446602E+01  0.60491882139E+01  0.10000000000E-01 0.  1.
      611    1    3    3    0    0 -0.22265685048E-01  0.49908433189E-01  0.34009101179E+01  0.34013638798E+01  0.10000000000E-01 0. -1.
</event>
<event>
 7   0  0.6206631E-02  0.9118800E+02  0.7818608E-02  0.1180000E+00
       11   -1    0    0    0    0  0.00000000000E+00  0.00000000000E+00  0.11999999989E+02  0.12000000000E+02  0.51109989000E-03 0.  1.
     -623   -1    0    0    0    0  0.00000000000E+00  0.00000000000E+00  0.42561509872E-11  0.25126700000E+02  0.25126700000E+02 0. -1.
      622    2    1    2    0    0  0.12323253186E-01  0.49610595740E-01  0.87402789240E+01  0.87406555655E+01  0.63015647569E-01 0.  0.
       11    1    1    2    0    0 -0.21762912334E-01 -0.47501437756E-01  0.32589236953E+01  0.32593425601E+01  0.51109989000E-03 0.  1.
     -623    1    1    2    0    0  0.94396591484E-02 -0.21091579836E-02  0.79736974478E-03  0.25126701874E+02  0.25126700000E+02 0. -1.
     -611    1    3    3    0    0  0.27051159053E-01  0.55157280708E-01  0.70021132394E+01  0.70023898712E+01  0.10000000000E-01 0. -1.
      611    1    3    3    0    0 -0.14727905867E-01 -0.55466849688E-02  0.17381656846E+01  0.17382656943E+01  0.10000000000E-01 0.  1.
</event>
<event>
 7   0  0.6206631E-02  0.9118800E+02  0.7818608E-02  0.1180000E+00
       11   -1    0    0    0    0  0.00000000000E+00  0.00000000000E+00  0.11999999989E+02  0.12000000000E+02  0.51109989000E-03 0. -1.
     -623   -1    0    0    0    0  0.00000000000E+00  0.00000000000E+00  0.42561509872E-11  0.25126700000E+02  0.25126700000E+02 0.  1.
      622    2    1    2    0    0  0.28739820576E-03 -0.20421503476E-01  0.93297446832E+01  0.93305621953E+01  0.12181093907E+00 0.  0.
       11    1    1    2    0    0  0.39517209488E-02  0.22376737787E-01  0.26693405915E+01  0.26694373544E+01  0.51109989000E-03 0. -1.
     -623    1    1    2    0    0 -0.42391191546E-02 -0.19552343107E-02  0.91471437396E-03  0.25126700450E+02  0.25126700000E+02 0.  1.
     -611    1    3    3    0    0  0.30221815319E-01 -0.43979000846E-01  0.81103206760E+01  0.81105023875E+01  0.10000000000E-01 0. -1.
      611    1    3    3    0    0 -0.29934417114E-01  0.23557497370E-01  0.12194240073E+01  0.12200598078E+01  0.10000000000E-01 0.  1.
</event>
<event>
 7   0  0.6206631E-02  0.9118800E+02  0.7818608E-02  0.1180000E+00
       11   -1    0    0    0    0  0.00000000000E+00  0.00000000000E+00  0.11999999989E+02  0.12000000000E+02  0.51109989000E-03 0. -1.
     -623   -1    0    0    0    0  0.00000000000E+00  0.00000000000E+00  0.42561509872E-11  0.25126700000E+02  0.25126700000E+02 0.  1.
      622    2    1    2    0    0  0.93368022742E-02  0.14987711820E-01  0.11940906776E+02  0.11941915665E+02  0.15421835744E+00 0.  0.
       11    1    1    2    0    0 -0.15313774001E-01 -0.79026707530E-02  0.55464725842E-01  0.58082363201E-01  0.51109989000E-03 0. -1.
     -623    1    1    2    0    0  0.59769717265E-02 -0.70850410669E-02  0.36284869222E-02  0.25126701972E+02  0.25126700000E+02 0.  1.
     -611    1    3    3    0    0  0.76326406104E-01 -0.17347209621E-01  0.68772839696E+01  0.68777366513E+01  0.10000000000E-01 0. -1.
      611    1    3    3    0    0 -0.66989603829E-01  0.32334921441E-01  0.50636228068E+01  0.50641790138E+01  0.10000000000E-01 0.  1.
</event>
<event>
 7   0  0.6206631E-02  0.9118800E+02  0.7818608E-02  0.1180000E+00
       11   -1    0    0    0    0  0.00000000000E+00  0.00000000000E+00  0.11999999989E+02  0.12000000000E+02  0.51109989000E-03 0.  1.
     -623   -1    0    0    0    0  0.00000000000E+00  0.00000000000E+00  0.42561509872E-11  0.25126700000E+02  0.25126700000E+02 0.  1.
      622    2    1    2    0    0 -0.54383515931E-02  0.20920086518E-01  0.10601060097E+02  0.10601601150E+02  0.10490244991E+00 0.  0.
       11    1    1    2    0    0  0.91689450748E-02 -0.15942586066E-01  0.13982770361E+01  0.13983980716E+01  0.51109989000E-03 0.  1.
     -623    1    1    2    0    0 -0.37305934817E-02 -0.49775004526E-02  0.66285561645E-03  0.25126700779E+02  0.25126700000E+02 0.  1.
     -611    1    3    3    0    0  0.86700571889E-02 -0.18443750287E-01  0.87952209626E+01  0.87952502592E+01  0.10000000000E-01 0. -1.
      611    1    3    3    0    0 -0.14108408782E-01  0.39363836806E-01  0.18058391348E+01  0.18063508905E+01  0.10000000000E-01 0.  1.
</event>
<event>
 7   0  0.6206631E-02  0.9118800E+02  0.7818608E-02  0.1180000E+00
       11   -1    0    0    0    0  0.00000000000E+00  0.00000000000E+00  0.11999999989E+02  0.12000000000E+02  0.51109989000E-03 0. -1.
     -623   -1    0    0    0    0  0.00000000000E+00  0.00000000000E+00  0.42561509872E-11  0.25126700000E+02  0.25126700000E+02 0. -1.
      622    2    1    2    0    0 -0.36025632900E-02  0.11410635950E-02  0.11972659557E+02  0.11973129547E+02  0.10601886904E+00 0.  0.
       11    1    1    2    0    0  0.28933115828E-02 -0.46607373641E-02  0.26299265074E-01  0.26870174754E-01  0.51109989000E-03 0. -1.
     -623    1    1    2    0    0  0.70925170726E-03  0.35196737691E-02  0.10411668790E-02  0.25126700278E+02  0.25126700000E+02 0. -1.
     -611    1    3    3    0    0  0.22150170199E-01  0.45132643277E-01  0.45633262589E+01  0.45636141522E+01  0.10000000000E-01 0.  1.
      611    1    3    3    0    0 -0.25752733489E-01 -0.43991579682E-01  0.74093332983E+01  0.74095153949E+01  0.10000000000E-01 0. -1.
</event>
<event>
 7   0  0.6206631E-02  0.9118800E+02  0.7818608E-02  0.1180000E+00
       11   -1    0    0    0    0  0.00000000000E+00  0.00000000000E+00  0.11999999989E+02  0.12000000000E+02  0.51109989000E-03 0.  1.
     -623   -1    0    0    0    0  0.00000000000E+00  0.00000000000E+00  0.42561509872E-11  0.25126700000E+02  0.25126700000E+02 0.  1.
      622    2    1    2    0    0  0.10386336266E-01  0.78760357621E-01  0.91418204059E+01  0.91427253991E+01  0.10117469866E+00 0.  0.
       11    1    1    2    0    0 -0.12125502246E-01 -0.75233761644E-01  0.28562577893E+01  0.28572742197E+01  0.51109989000E-03 0.  1.
     -623    1    1    2    0    0  0.17391659801E-02 -0.35265959762E-02  0.19217939339E-02  0.25126700381E+02  0.25126700000E+02 0.  1.
     -611    1    3    3    0    0  0.36499279118E-01  0.74924678557E-03  0.45484448119E+01  0.45486023090E+01  0.10000000000E-01 0. -1.
      611    1    3    3    0    0 -0.26112942852E-01  0.78011110835E-01  0.45933755940E+01  0.45941230901E+01  0.10000000000E-01 0.  1.
</event>
<event>
 7   0  0.6206631E-02  0.9118800E+02  0.7818608E-02  0.1180000E+00
       11   -1    0    0    0    0  0.00000000000E+00  0.00000000000E+00  0.11999999989E+02  0.12000000000E+02  0.51109989000E-03 0.  1.
     -623   -1    0    0    0    0  0.00000000000E+00  0.00000000000E+00  0.42561509872E-11  0.25126700000E+02  0.25126700000E+02 0. -1.
      622    2    1    2    0    0 -0.12465186947E+00 -0.53027225003E-02  0.73626857138E+01  0.73644384399E+01  0.10122453700E+00 0.  0.
       11    1    1    2    0    0  0.16421281090E+00 -0.18444143799E-01  0.46325724783E+01  0.46355187478E+01  0.51109989000E-03 0.  1.
     -623    1    1    2    0    0 -0.39560941432E-01  0.23746866300E-01  0.47417970459E-02  0.25126742812E+02  0.25126700000E+02 0. -1.
     -611    1    3    3    0    0  0.37384908404E-02  0.14931936428E-01  0.23048230492E+01  0.23048961424E+01  0.10000000000E-01 0. -1.
      611    1    3    3    0    0 -0.12839036031E+00 -0.20234658928E-01  0.50578626646E+01  0.50595422975E+01  0.10000000000E-01 0.  1.
</event>
<event>
 7   0  0.6206631E-02  0.9118800E+02  0.7818608E-02  0.1180000E+00
       11   -1    0    0    0    0  0.00000000000E+00  0.00000000000E+00  0.11999999989E+02  0.12000000000E+02  0.51109989000E-03 0.  1.
     -623   -1    0    0    0    0  0.00000000000E+00  0.00000000000E+00  0.42561509872E-11  0.25126700000E+02  0.25126700000E+02 0. -1.
      622    2    1    2    0    0  0.14065138981E-01 -0.83483235464E-01  0.11797076968E+02  0.11797958854E+02  0.11679412065E+00 0.  0.
       11    1    1    2    0    0 -0.25940469513E-01  0.62598621386E-01  0.19032327917E+00  0.20202650117E+00  0.51109989000E-03 0.  1.
     -623    1    1    2    0    0  0.11875330532E-01  0.20884614078E-01  0.12599742355E-01  0.25126714645E+02  0.25126700000E+02 0. -1.
     -611    1    3    3    0    0  0.28121720357E-01 -0.88617450613E-01  0.11473936290E+02  0.11474317316E+02  0.10000000000E-01 0.  1.
      611    1    3    3    0    0 -0.14056581376E-01  0.51342151489E-02  0.32314067806E+00  0.32364153853E+00  0.10000000000E-01 0. -1.
</event>
<event>
 7   0  0.6206631E-02  0.9118800E+02  0.7818608E-02  0.1180000E+00
       11   -1    0    0    0    0  0.00000000000E+00  0.00000000000E+00  0.11999999989E+02  0.12000000000E+02  0.51109989000E-03 0.  1.
     -623   -1    0    0    0    0  0.00000000000E+00  0.00000000000E+00  0.42561509872E-11  0.25126700000E+02  0.25126700000E+02 0. -1.
      622    2    1    2    0    0 -0.10985660735E-01  0.10213109809E-01  0.11543685345E+02  0.11544723210E+02  0.15407031184E+00 0.  0.
       11    1    1    2    0    0  0.85930383948E-02 -0.98009449477E-02  0.45508972922E+00  0.45527664303E+00  0.51109989000E-03 0.  1.
     -623    1    1    2    0    0  0.23926223403E-02 -0.41216486099E-03  0.12249151856E-02  0.25126700147E+02  0.25126700000E+02 0. -1.
     -611    1    3    3    0    0  0.28356488107E-01  0.54774070603E-01  0.93530077874E+01  0.93532165034E+01  0.10000000000E-01 0.  1.
      611    1    3    3    0    0 -0.39342148843E-01 -0.44560960795E-01  0.21906775573E+01  0.21915067064E+01  0.10000000000E-01 0. -1.
</event>
<event>
 7   0  0.6206631E-02  0.9118800E+02  0.7818608E-02  0.1180000E+00
       11   -1    0    0    0    0  0.00000000000E+00  0.00000000000E+00  0.11999999989E+02  0.12000000000E+02  0.51109989000E-03 0. -1.
     -623   -1    0    0    0    0  0.00000000000E+00  0.00000000000E+00  0.42561509872E-11  0.25126700000E+02  0.25126700000E+02 0.  1.
      622    2    1    2    0    0 -0.14651136028E-01  0.35558898877E-01  0.11412926642E+02  0.11413384071E+02  0.94669558021E-01 0.  0.
       11    1    1    2    0    0  0.83282590663E-01 -0.42089745946E-01  0.57904921441E+00  0.58652006833E+00  0.51109989000E-03 0. -1.
     -623    1    1    2    0    0 -0.68631454635E-01  0.65308470694E-02  0.80241323319E-02  0.25126795860E+02  0.25126700000E+02 0.  1.
     -611    1    3    3    0    0 -0.22776224956E-01 -0.24124074153E-01  0.23941783323E+01  0.23944290790E+01  0.10000000000E-01 0.  1.
      611    1    3    3    0    0  0.81250889284E-02  0.59682973030E-01  0.90187483100E+01  0.90189549923E+01  0.10000000000E-01 0. -1.
</event>
<event>
 7   0  0.6206631E-02  0.9118800E+02  0.7818608E-02  0.1180000E+00
       11   -1    0    0    0    0  0.00000000000E+00  0.00000000000E+00  0.11999999989E+02  0.12000000000E+02  0.51109989000E-03 0. -1.
     -623   -1    0    0    0    0  0.00000000000E+00  0.00000000000E+00  0.42561509872E-11  0.25126700000E+02  0.25126700000E+02 0.  1.
      622    2    1    2    0    0  0.14335953024E-02 -0.68194777546E-02  0.11700354005E+02  0.11700528099E+02  0.63445827964E-01 0.  0.
       11    1    1    2    0    0  0.91308154239E-02  0.52407238514E-02  0.29928407925E+00  0.29946962833E+00  0.51109989000E-03 0. -1.
     -623    1    1    2    0    0 -0.10564410726E-01  0.15787539032E-02  0.36190444666E-03  0.25126702273E+02  0.25126700000E+02 0.  1.
     -611    1    3    3    0    0  0.83203862851E-02  0.77059766464E-02  0.10603103621E+02  0.10603114402E+02  0.10000000000E-01 0. -1.
      611    1    3    3    0    0 -0.68867909827E-02 -0.14525454401E-01  0.10972503839E+01  0.10974136967E+01  0.10000000000E-01 0. -1.
</event>
<event>
 7   0  0.6206631E-02  0.9118800E+02  0.7818608E-02  0.1180000E+00
       11   -1    0    0    0    0  0.00000000000E+00  0.00000000000E+00  0.11999999989E+02  0.12000000000E+02  0.51109989000E-03 0.  1.
     -623   -1    0    0    0    0  0.00000000000E+00  0.00000000000E+00  0.42561509872E-11  0.25126700000E+02  0.25126700000E+02 0.  1.
      622    2    1    2    0    0  0.12476653238E-01  0.77308925824E-02  0.11783120218E+02  0.11784033408E+02  0.14596523636E+00 0.  0.
       11    1    1    2    0    0 -0.64884596194E-02 -0.53725518061E-03  0.21586606312E+00  0.21596482857E+00  0.51109989000E-03 0.  1.
     -623    1    1    2    0    0 -0.59881936181E-02 -0.71936374018E-02  0.10137081045E-02  0.25126701764E+02  0.25126700000E+02 0.  1.
     -611    1    3    3    0    0  0.74734551411E-01  0.12473922337E-01  0.45996503255E+01  0.46002852052E+01  0.10000000000E-01 0. -1.
      611    1    3    3    0    0 -0.62257898173E-01 -0.47430297542E-02  0.71834698924E+01  0.71837482025E+01  0.10000000000E-01 0.  1.
</event>
<event>
 7   0  0.6206631E-02  0.9118800E+02  0.7818608E-02  0.1180000E+00
       11   -1    0    0    0    0  0.00000000000E+00  0.00000000000E+00  0.11999999989E+02  0.12000000000E+02  0.51109989000E-03 0.  1.
     -623   -1    0    0    0    0  0.00000000000E+00  0.00000000000E+00  0.42561509872E-11  0.25126700000E+02  0.25126700000E+02 0.  1.
      622    2    1    2    0    0 -0.53126794303E-02  0.12817972597E-01  0.11753705861E+02  0.11754499516E+02  0.13588553627E+00 0.  0.
       11    1    1    2    0    0 -0.21151986761E-01 -0.18500583952E-01  0.24387154921E+00  0.24548578754E+00  0.51109989000E-03 0.  1.
     -623    1    1    2    0    0  0.26464666191E-01  0.56826113553E-02  0.24225787289E-02  0.25126714696E+02  0.25126700000E+02 0.  1.
     -611    1    3    3    0    0 -0.54091445542E-01 -0.31011981319E-01  0.76176241360E+01  0.76178858684E+01  0.10000000000E-01 0.  1.
      611    1    3    3    0    0  0.48778766111E-01  0.43829953916E-01  0.41360817252E+01  0.41366136477E+01  0.10000000000E-01 0. -1.
</event>
<event>
 7   0  0.6206631E-02  0.9118800E+02  0.7818608E-02  0.1180000E+00
       11   -1    0    0    0    0  0.00000000000E+00  0.00000000000E+00  0.11999999989E+02  0.12000000000E+02  0.51109989000E-03 0. -1.
     -623   -1    0    0    0    0  0.00000000000E+00  0.00000000000E+00  0.42561509872E-11  0.25126700000E+02  0.25126700000E+02 0.  1.
      622    2    1    2    0    0  0.27990718178E-01  0.52349945034E-01  0.11379230223E+02  0.11380793860E+02  0.17906537616E+00 0.  0.
       11    1    1    2    0    0 -0.33494374402E-01 -0.55618971189E-01  0.61579137635E+00  0.61920483160E+00  0.51109989000E-03 0. -1.
     -623    1    1    2    0    0  0.55036562238E-02  0.32690261548E-02  0.49783895353E-02  0.25126701309E+02  0.25126700000E+02 0.  1.
     -611    1    3    3    0    0 -0.51203953128E-01  0.71515833604E-01  0.82915464625E+01  0.82920190002E+01  0.10000000000E-01 0. -1.
      611    1    3    3    0    0  0.79194671306E-01 -0.19165888571E-01  0.30876837607E+01  0.30887748596E+01  0.10000000000E-01 0.  1.
</event>
<event>
 7   0  0.6206631E-02  0.9118800E+02  0.7818608E-02  0.1180000E+00
       11   -1    0    0    0    0  0.00000000000E+00  0.00000000000E+00  0.11999999989E+02  0.12000000000E+02  0.51109989000E-03 0.  1.
     -623   -1    0    0    0    0  0.00000000000E+00  0.00000000000E+00  0.42561509872E-11  0.25126700000E+02  0.25126700000E+02 0. -1.
      622    2    1    2    0    0  0.35657457307E-03 -0.22148235969E-03  0.11990499381E+02  0.11990746132E+02  0.76923390340E-01 0.  0.
       11    1    1    2    0    0 -0.82264479987E-03  0.12482905070E-02  0.91179692262E-02  0.92538402635E-02  0.51109989000E-03 0.  1.
     -623    1    1    2    0    0  0.46607022680E-03 -0.10268081473E-02  0.38263886773E-03  0.25126700028E+02  0.25126700000E+02 0. -1.
     -611    1    3    3    0    0 -0.16468260909E-01 -0.31111149407E-01  0.41450903596E+01  0.41452518858E+01  0.10000000000E-01 0. -1.
      611    1    3    3    0    0  0.16824835482E-01  0.30889667047E-01  0.78454090215E+01  0.78454942458E+01  0.10000000000E-01 0.  1.
</event>
<event>
 7   0  0.6206631E-02  0.9118800E+02  0.7818608E-02  0.1180000E+00
       11   -1    0    0    0    0  0.00000000000E+00  0.00000000000E+00  0.11999999989E+02  0.12000000000E+02  0.51109989000E-03 0. -1.
     -623   -1    0    0    0    0  0.00000000000E+00  0.00000000000E+00  0.42561509872E-11  0.25126700000E+02  0.25126700000E+02 0.  1.
      622    2    1    2    0    0  0.41058275316E-01 -0.14254112955E-01  0.88445725048E+01  0.88452357685E+01  0.99217167799E-01 0.  0.
       11    1    1    2    0    0 -0.25894392122E-01  0.52243436896E-03  0.31546495339E+01  0.31547558916E+01  0.51109989000E-03 0. -1.
     -623    1    1    2    0    0 -0.15163883195E-01  0.13731678586E-01  0.77795040313E-03  0.25126708340E+02  0.25126700000E+02 0.  1.
     -611    1    3    3    0    0  0.44386390462E-01 -0.39868959715E-01  0.30653356849E+01  0.30659325737E+01  0.10000000000E-01 0.  1.
      611    1    3    3    0    0 -0.33281151461E-02  0.25614846760E-01  0.57792368199E+01  0.57793031948E+01  0.10000000000E-01 0. -1.
</event>
<event>
 7   0  0.6206631E-02  0.9118800E+02  0.7818608E-02  0.1180000E+00
       11   -1    0    0    0    0  0.00000000000E+00  0.00000000000E+00  0.11999999989E+02  0.12000000000E+02  0.51109989000E-03 0. -1.
     -623   -1    0    0    0    0  0.00000000000E+00  0.00000000000E+00  0.42561509872E-11  0.25126700000E+02  0.25126700000E+02 0.  1.
      622    2    1    2    0    0  0.21734787926E-01  0.14382679468E-01  0.11542651850E+02  0.11543052472E+02  0.92570859916E-01 0.  0.
       11    1    1    2    0    0 -0.18343958388E-01  0.30525684510E-02  0.45656238885E+00  0.45694123815E+00  0.51109989000E-03 0. -1.
     -623    1    1    2    0    0 -0.33908295376E-02 -0.17435247919E-01  0.78574997099E-03  0.25126706290E+02  0.25126700000E+02 0.  1.
     -611    1    3    3    0    0  0.97337043307E-02  0.26985901035E-01  0.10981101751E+02  0.10981143777E+02  0.10000000000E-01 0. -1.
      611    1    3    3    0    0  0.12001083595E-01 -0.12603221568E-01  0.56155009882E+00  0.56190869426E+00  0.10000000000E-01 0.  1.
</event>
<event>
 7   0  0.6206631E-02  0.9118800E+02  0.7818608E-02  0.1180000E+00
       11   -1    0    0    0    0  0.00000000000E+00  0.00000000000E+00  0.11999999989E+02  0.12000000000E+02  0.51109989000E-03 0. -1.
     -623   -1    0    0    0    0  0.00000000000E+00  0.00000000000E+00  0.42561509872E-11  0.25126700000E+02  0.25126700000E+02 0. -1.
      622    2    1    2    0    0  0.71272824521E-02  0.31607074598E-01  0.11626012557E+02  0.11626268433E+02  0.69999284549E-01 0.  0.
       11    1    1    2    0    0  0.54013139682E-01  0.39105417584E-02  0.36968592356E+00  0.37363171024E+00  0.51109989000E-03 0. -1.
     -623    1    1    2    0    0 -0.61140422135E-01 -0.35517616356E-01  0.43015088252E-02  0.25126799857E+02  0.25126700000E+02 0. -1.
     -611    1    3    3    0    0  0.15067316579E-01  0.35089155699E-01  0.31733627115E+01  0.31736082259E+01  0.10000000000E-01 0.  1.
      611    1    3    3    0    0 -0.79400341268E-02 -0.34820811014E-02  0.84526498453E+01  0.84526602070E+01  0.10000000000E-01 0. -1.
</event>
<event>
 7   0  0.6206631E-02  0.9118800E+02  0.7818608E-02  0.1180000E+00
       11   -1    0    0    0    0  0.00000000000E+00  0.00000000000E+00  0.11999999989E+02  0.12000000000E+02  0.51109989000E-03 0.  1.
     -623   -1    0    0    0    0  0.00000000000E+00  0.00000000000E+00  0.42561509872E-11  0.25126700000E+02  0.25126700000E+02 0. -1.
      622    2    1    2    0    0  0.42408787257E-02  0.75158159005E-02  0.11935384689E+02  0.11935723543E+02  0.89522969919E-01 0.  0.
       11    1    1    2    0    0 -0.12668696863E-01 -0.38732050677E-02  0.62892613559E-01  0.64274720234E-01  0.51109989000E-03 0.  1.
     -623    1    1    2    0    0  0.84278181377E-02 -0.36426108328E-02  0.17226868756E-02  0.25126701736E+02  0.25126700000E+02 0. -1.
     -611    1    3    3    0    0  0.33456277400E-01  0.16015455565E-01  0.25988517831E+01  0.25991357040E+01  0.10000000000E-01 0. -1.
      611    1    3    3    0    0 -0.29215398674E-01 -0.84996396643E-02  0.93365329056E+01  0.93365878393E+01  0.10000000000E-01 0.  1.
</event>
<event>
 7   0  0.6206631E-02  0.9118800E+02  0.7818608E-02  0.1180000E+00
       11   -1    0    0    0    0  0.00000000000E+00  0.00000000000E+00  0.11999999989E+02  0.12000000000E+02  0.51109989000E-03 0.  1.
     -623   -1    0    0    0    0  0.00000000000E+00  0.00000000000E+00  0.42561509872E-11  0.25126700000E+02  0.25126700000E+02 0.  1.
      622    2    1    2    0    0 -0.13173860067E-01  0.50360166518E-02  0.11902837700E+02  0.11904081568E+02  0.17150442783E+00 0.  0.
       11    1    1    2    0    0 -0.65494657013E-03  0.21084034958E-01  0.93550707627E-01  0.95900790433E-01  0.51109989000E-03 0.  1.
     -623    1    1    2    0    0  0.13828806637E-01 -0.26120051610E-01  0.36115819065E-02  0.25126717641E+02  0.25126700000E+02 0.  1.
     -611    1    3    3    0    0  0.35752675777E-01 -0.15619244564E-02  0.60953391458E+00  0.61066544560E+00  0.10000000000E-01 0. -1.
      611    1    3    3    0    0 -0.48926535844E-01  0.65979411082E-02  0.11293303785E+02  0.11293416123E+02  0.10000000000E-01 0.  1.
</event>
<event>
 7   0  0.6206631E-02  0.9118800E+02  0.7818608E-02  0.1180000E+00
       11   -1    0    0    0    0  0.00000000000E+00  0.00000000000E+00  0.11999999989E+02  0.12000000000E+02  0.51109989000E-03 0. -1.
     -623   -1    0    0    0    0  0.00000000000E+00  0.00000000000E+00  0.42561509872E-11  0.25126700000E+02  0.25126700000E+02 0. -1.
      622    2    1    2    0    0 -0.33902116346E-02 -0.14746227663E-01  0.11825474236E+02  0.11825531955E+02  0.33706958336E-01 0.  0.
       11    1    1    2    0    0  0.54263897783E-02  0.11788216646E-02  0.17437515695E+00  0.17446429981E+00  0.51109989000E-03 0. -1.
     -623    1    1    2    0    0 -0.20361781437E-02  0.13567405998E-01  0.15059650323E-03  0.25126703746E+02  0.25126700000E+02 0. -1.
     -611    1    3    3    0    0  0.10373683575E-01 -0.22128790593E-03  0.51927014478E+01  0.51927214434E+01  0.10000000000E-01 0. -1.
      611    1    3    3    0    0 -0.13763895210E-01 -0.14524939757E-01  0.66327727880E+01  0.66328105111E+01  0.10000000000E-01 0. -1.
</event>
<event>
 7   0  0.6206631E-02  0.9118800E+02  0.7818608E-02  0.1180000E+00
       11   -1    0    0    0    0  0.00000000000E+00  0.00000000000E+00  0.11999999989E+02  0.12000000000E+02  0.51109989000E-03 0.  1.
     -623   -1    0    0    0    0  0.00000000000E+00  0.00000000000E+00  0.42561509872E-11  0.25126700000E+02  0.25126700000E+02 0. -1.
      622    2    1    2    0    0 -0.32427308189E-01 -0.43276724698E-03  0.93394904974E+01  0.93400310025E+01  0.95103411583E-01 0.  0.
       11    1    1    2    0    0  0.31674296983E-01 -0.68914475816E-03  0.26597802204E+01  0.26599689506E+01  0.51109989000E-03 0.  1.
     -623    1    1    2    0    0  0.75301120610E-03  0.11219120051E-02  0.72927130852E-03  0.25126700047E+02  0.25126700000E+02 0. -1.
     -611    1    3    3    0    0 -0.44863308580E-02  0.35496301894E-01  0.68725363619E+01  0.68726367691E+01  0.10000000000E-01 0.  1.
      611    1    3    3    0    0 -0.27940977331E-01 -0.35929069141E-01  0.24669541355E+01  0.24673942334E+01  0.10000000000E-01 0.  1.
</event>
<event>
 7   0  0.6206631E-02  0.9118800E+02  0.7818608E-02  0.1180000E+00
       11   -1    0    0    0    0  0.00000000000E+00  0.00000000000E+00  0.11999999989E+02  0.12000000000E+02  0.51109989000E-03 0. -1.
     -623   -1    0    0    0    0  0.00000000000E+00  0.00000000000E+00  0.42561509872E-11  0.25126700000E+02  0.25126700000E+02 0.  1.
      622    2    1    2    0    0 -0.13901142658E-01  0.91841437918E-02  0.11774398343E+02  0.11774989645E+02  0.11682121324E+00 0.  0.
       11    1    1    2    0    0 -0.43560094265E-02 -0.10765926780E-01  0.22470314711E+00  0.22500365673E+00  0.51109989000E-03 0. -1.
     -623    1    1    2    0    0  0.18257152084E-01  0.15817829883E-02  0.89849885039E-03  0.25126706699E+02  0.25126700000E+02 0.  1.
     -611    1    3    3    0    0 -0.45472922024E-01 -0.12147444178E-01  0.22712318420E+01  0.22717414966E+01  0.10000000000E-01 0.  1.
      611    1    3    3    0    0  0.31571779367E-01  0.21331587970E-01  0.95031665012E+01  0.95032481480E+01  0.10000000000E-01 0. -1.
</event>
<event>
 7   0  0.6206631E-02  0.9118800E+02  0.7818608E-02  0.1180000E+00
       11   -1    0    0    0    0  0.00000000000E+00  0.00000000000E+00  0.11999999989E+02  0.12000000000E+02  0.51109989000E-03 0. -1.
     -623   -1    0    0    0    0  0.00000000000E+00  0.00000000000E+00  0.42561509872E-11  0.25126700000E+02  0.25126700000E+02 0.  1.
      622    2    1    2    0    0  0.58383001377E-03  0.21643045305E-01  0.10431904905E+02  0.10432034075E+02  0.47183020733E-01 0.  0.
       11    1    1    2    0    0  0.26843332133E-04 -0.21318957265E-01  0.15678208914E+01  0.15679659140E+01  0.51109989000E-03 0. -1.
     -623    1    1    2    0    0 -0.61067334591E-03 -0.32408804010E-03  0.27419292962E-03  0.25126700011E+02  0.25126700000E+02 0.  1.
     -611    1    3    3    0    0 -0.10420946438E-01  0.24687558496E-01  0.36456478981E+01  0.36457600948E+01  0.10000000000E-01 0. -1.
      611    1    3    3    0    0  0.11004776452E-01 -0.30445131912E-02  0.67862570066E+01  0.67862739802E+01  0.10000000000E-01 0.  1.
</event>
<event>
 7   0  0.6206631E-02  0.9118800E+02  0.7818608E-02  0.1180000E+00
       11   -1    0    0    0    0  0.00000000000E+00  0.00000000000E+00  0.11999999989E+02  0.12000000000E+02  0.51109989000E-03 0.  1.
     -623   -1    0    0    0    0  0.00000000000E+00  0.00000000000E+00  0.42561509872E-11  0.25126700000E+02  0.25126700000E+02 0.  1.
      622    2    1    2    0    0  0.37785853651E-01  0.35727565854E-01  0.11793806435E+02  0.11794740706E+02  0.13904626476E+00 0.  0.
       11    1    1    2    0    0 -0.18519378910E-01 -0.37834165026E-01  0.20088162268E+00  0.20525125820E+00  0.51109989000E-03 0.  1.
     -623    1    1    2    0    0 -0.19266474741E-01  0.21065991721E-02  0.53119318496E-02  0.25126708036E+02  0.25126700000E+02 0.  1.
     -611    1    3    3    0    0 -0.18644633485E-01 -0.42036148726E-01  0.25914800060E+01  0.25919072672E+01  0.10000000000E-01 0. -1.
      611    1    3    3    0    0  0.56430487136E-01  0.77763714580E-01  0.92023264286E+01  0.92028334384E+01  0.10000000000E-01 0.  1.
</event>
<event>
 7   0  0.6206631E-02  0.9118800E+02  0.7818608E-02  0.1180000E+00
       11   -1    0    0    0    0  0.00000000000E+00  0.00000000000E+00  0.11999999989E+02  0.12000000000E+02  0.51109989000E-03 0. -1.
     -623   -1    0    0    0    0  0.00000000000E+00  0.00000000000E+00  0.42561509872E-11  0.25126700000E+02  0.25126700000E+02 0.  1.
      622    2    1    2    0    0 -0.50726638045E-02 -0.15748191572E-01  0.11684138864E+02  0.11684516903E+02  0.92523163929E-01 0.  0.
       11    1    1    2    0    0 -0.66740790499E-02 -0.12017671733E-01  0.31516493665E+00  0.31546500009E+00  0.51109989000E-03 0. -1.
     -623    1    1    2    0    0  0.11746742854E-01  0.27765863305E-01  0.69618854682E-03  0.25126718097E+02  0.25126700000E+02 0.  1.
     -611    1    3    3    0    0 -0.10663547958E-01 -0.38754689493E-03  0.11186050133E+02  0.11186059692E+02  0.10000000000E-01 0. -1.
      611    1    3    3    0    0  0.55908841535E-02 -0.15360644677E-01  0.49808873095E+00  0.49845721109E+00  0.10000000000E-01 0.  1.
</event>
<event>
 7   0  0.6206631E-02  0.9118800E+02  0.7818608E-02  0.1180000E+00
       11   -1    0    0    0    0  0.00000000000E+00  0.00000000000E+00  0.11999999989E+02  0.12000000000E+02  0.51109989000E-03 0.  1.
     -623   -1    0    0    0    0  0.00000000000E+00  0.00000000000E+00  0.42561509872E-11  0.25126700000E+02  0.25126700000E+02 0. -1.
      622    2    1    2    0    0 -0.44097664307E-02  0.50769667387E-02  0.11980208998E+02  0.11980409527E+02  0.68989701073E-01 0.  0.
       11    1    1    2    0    0  0.68159592379E-02 -0.51982354893E-03  0.18351445791E-01  0.19589903078E-01  0.51109989000E-03 0.  1.
     -623    1    1    2    0    0 -0.24061928071E-02 -0.45571431898E-02  0.14395451791E-02  0.25126700570E+02  0.25126700000E+02 0. -1.
     -611    1    3    3    0    0 -0.24301809453E-01 -0.16222986022E-01  0.32648210151E+01  0.32649670786E+01  0.10000000000E-01 0.  1.
      611    1    3    3    0    0  0.19892043022E-01  0.21299952761E-01  0.87153879830E+01  0.87154424487E+01  0.10000000000E-01 0. -1.
</event>
<event>
 7   0  0.6206631E-02  0.9118800E+02  0.7818608E-02  0.1180000E+00
       11   -1    0    0    0    0  0.00000000000E+00  0.00000000000E+00  0.11999999989E+02  0.12000000000E+02  0.51109989000E-03 0.  1.
     -623   -1    0    0    0    0  0.00000000000E+00  0.00000000000E+00  0.42561509872E-11  0.25126700000E+02  0.25126700000E+02 0. -1.
      622    2    1    2    0    0  0.16063385677E-01 -0.69246611029E-01  0.10511317708E+02  0.10511967821E+02  0.92813615334E-01 0.  0.
       11    1    1    2    0    0 -0.35656435768E-01  0.63637870558E-01  0.14862346363E+01  0.14880237952E+01  0.51109989000E-03 0.  1.
     -623    1    1    2    0    0  0.19593050091E-01  0.56087404712E-02  0.24476444640E-02  0.25126708384E+02  0.25126700000E+02 0. -1.
     -611    1    3    3    0    0 -0.33028130924E-01 -0.24973544782E-01  0.60408085964E+01  0.60409587843E+01  0.10000000000E-01 0.  1.
      611    1    3    3    0    0  0.49091516600E-01 -0.44273066247E-01  0.44705091120E+01  0.44710090362E+01  0.10000000000E-01 0. -1.
</event>
<event>
 7   0  0.6206631E-02  0.9118800E+02  0.7818608E-02  0.1180000E+00
       11   -1    0    0    0    0  0.00000000000E+00  0.00000000000E+00  0.11999999989E+02  0.12000000000E+02  0.51109989000E-03 0.  1.
     -623   -1    0    0    0    0  0.00000000000E+00  0.00000000000E+00  0.42561509872E-11  0.25126700000E+02  0.25126700000E+02 0.  1.
      622    2    1    2    0    0 -0.93978697507E-02 -0.38098953222E-01  0.11098676700E+02  0.11099444585E+02  0.12452212489E+00 0.  0.
       11    1    1    2    0    0  0.25145133646E-01  0.34390564653E-01  0.89954172269E+00  0.90055014339E+00  0.51109989000E-03 0.  1.
     -623    1    1    2    0    0 -0.15747263895E-01  0.37083885696E-02  0.17815664008E-02  0.25126705271E+02  0.25126700000E+02 0.  1.
     -611    1    3    3    0    0 -0.23654204786E-02 -0.57199243737E-01  0.10677256986E+02  0.10677415141E+02  0.10000000000E-01 0.  1.
      611    1    3    3    0    0 -0.70324492721E-02  0.19100290515E-01  0.42141971431E+00  0.42202944453E+00  0.10000000000E-01 0.  1.
</event>
<event>
 7   0  0.6206631E-02  0.9118800E+02  0.7818608E-02  0.1180000E+00
       11   -1    0    0    0    0  0.00000000000E+00  0.00000000000E+00  0.11999999989E+02  0.12000000000E+02  0.51109989000E-03 0.  1.
     -623   -1    0    0    0    0  0.00000000000E+00  0.00000000000E+00  0.42561509872E-11  0.25126700000E+02  0.25126700000E+02 0.  1.
      622    2    1    2    0    0 -0.78882781563E-01  0.42288127217E-01  0.80509713220E+01  0.80521877661E+01  0.10760025177E+00 0.  0.
       11    1    1    2    0    0  0.76111058069E-01 -0.37104739556E-01  0.39469032646E+01  0.39478114565E+01  0.51109989000E-03 0.  1.
     -623    1    1    2    0    0  0.27717234936E-02 -0.51833876607E-02  0.21254025563E-02  0.25126700777E+02  0.25126700000E+02 0.  1.
     -611    1    3    3    0    0 -0.93061597711E-01  0.46624648815E-01  0.46759572746E+01  0.46771263349E+01  0.10000000000E-01 0. -1.
      611    1    3    3    0    0  0.14178816148E-01 -0.43365215980E-02  0.33750140474E+01  0.33750614312E+01  0.10000000000E-01 0.  1.
</event>
<event>
 7   0  0.6206631E-02  0.9118800E+02  0.7818608E-02  0.1180000E+00
       11   -1    0    0    0    0  0.00000000000E+00  0.00000000000E+00  0.11999999989E+02  0.12000000000E+02  0.51109989000E-03 0. -1.
     -623   -1    0    0    0    0  0.00000000000E+00  0.00000000000E+00  0.42561509872E-11  0.25126700000E+02  0.25126700000E+02 0.  1.
      622    2    1    2    0    0 -0.13067161414E-01  0.83665226280E-02  0.11827355259E+02  0.11828029622E+02  0.12534574693E+00 0.  0.
       11    1    1    2    0    0  0.12379700598E-01 -0.96745181945E-02  0.17125030869E+00  0.17197029609E+00  0.51109989000E-03 0. -1.
     -623    1    1    2    0    0  0.68746081577E-03  0.13079955665E-02  0.13944212158E-02  0.25126700082E+02  0.25126700000E+02 0.  1.
     -611    1    3    3    0    0  0.70293172434E-02  0.21772045106E-01  0.48353508670E+00  0.48417931938E+00  0.10000000000E-01 0.  1.
      611    1    3    3    0    0 -0.20096478657E-01 -0.13405522478E-01  0.11343820173E+02  0.11343850302E+02  0.10000000000E-01 0. -1.
</event>
<event>
 7   0  0.6206631E-02  0.9118800E+02  0.7818608E-02  0.1180000E+00
       11   -1    0    0    0    0  0.00000000000E+00  0.00000000000E+00  0.11999999989E+02  0.12000000000E+02  0.51109989000E-03 0.  1.
     -623   -1    0    0    0    0  0.00000000000E+00  0.00000000000E+00  0.42561509872E-11  0.25126700000E+02  0.25126700000E+02 0.  1.
      622    2    1    2    0    0  0.10363168101E-01 -0.19437934031E-02  0.11975210493E+02  0.11975556496E+02  0.90420477003E-01 0.  0.
       11    1    1    2    0    0 -0.90140090912E-02  0.59355757572E-02  0.21925213522E-01  0.24442987351E-01  0.51109989000E-03 0.  1.
     -623    1    1    2    0    0 -0.13491590103E-02 -0.39917823541E-02  0.28642824625E-02  0.25126700517E+02  0.25126700000E+02 0.  1.
     -611    1    3    3    0    0  0.31868337359E-01 -0.20780823431E-01  0.10281328372E+02  0.10281403626E+02  0.10000000000E-01 0.  1.
      611    1    3    3    0    0 -0.21505169257E-01  0.18837030028E-01  0.16938821211E+01  0.16941528697E+01  0.10000000000E-01 0.  1.
</event>
<event>
 7   0  0.6206631E-02  0.9118800E+02  0.7818608E-02  0.1180000E+00
       11   -1    0    0    0    0  0.00000000000E+00  0.00000000000E+00  0.11999999989E+02  0.12000000000E+02  0.51109989000E-03 0. -1.
     -623   -1    0    0    0    0  0.00000000000E+00  0.00000000000E+00  0.42561509872E-11  0.25126700000E+02  0.25126700000E+02 0. -1.
      622    2    1    2    0    0  0.12426023665E-03  0.75256562712E-04  0.11976956999E+02  0.11977398063E+02  0.10278794679E+00 0.  0.
       11    1    1    2    0    0  0.71132776161E-03 -0.58879068733E-03  0.22577259156E-01  0.22601913986E-01  0.51109989000E-03 0. -1.
     -623    1    1    2    0    0 -0.83558799826E-03  0.51353412462E-03  0.46573054903E-03  0.25126700023E+02  0.25126700000E+02 0. -1.
     -611    1    3    3    0    0 -0.45735903292E-02  0.17050834659E-01  0.48612656873E+00  0.48654978113E+00  0.10000000000E-01 0.  1.
      611    1    3    3    0    0  0.46978505658E-02 -0.16975578096E-01  0.11490830431E+02  0.11490848281E+02  0.10000000000E-01 0. -1.
</event>
<event>
 7   0  0.6206631E-02  0.9118800E+02  0.7818608E-02  0.1180000E+00
       11   -1    0    0    0    0  0.00000000000E+00  0.00000000000E+00  0.11999999989E+02  0.12000000000E+02  0.51109989000E-03 0. -1.
     -623   -1    0    0    0    0  0.00000000000E+00  0.00000000000E+00  0.42561509872E-11  0.25126700000E+02  0.25126700000E+02 0. -1.
      622    2    1    2    0    0 -0.16842740111E-01  0.18148164867E-01  0.11781594889E+02  0.11782120618E+02  0.10851310811E+00 0.  0.
       11    1    1    2    0    0 -0.80131314511E-02 -0.77515247424E-03  0.21771167767E+00  0.21786107260E+00  0.51109989000E-03 0. -1.
     -623    1    1    2    0    0  0.24855871562E-01 -0.17373012393E-01  0.69342257714E-03  0.25126718310E+02  0.25126700000E+02 0. -1.
     -611    1    3    3    0    0 -0.12057598473E-01 -0.31508877619E-02  0.11221393142E+02  0.11221404518E+02  0.10000000000E-01 0. -1.
      611    1    3    3    0    0 -0.47851416380E-02  0.21299052629E-01  0.56020174665E+00  0.56071609944E+00  0.10000000000E-01 0.  1.
</event>
<event>
 7   0  0.6206631E-02  0.9118800E+02  0.7818608E-02  0.1180000E+00
       11   -1    0    0    0    0  0.00000000000E+00  0.00000000000E+00  0.11999999989E+02  0.12000000000E+02  0.51109989000E-03 0. -1.
     -623   -1    0    0    0    0  0.00000000000E+00  0.00000000000E+00  0.42561509872E-11  0.25126700000E+02  0.25126700000E+02 0. -1.
      622    2    1    2    0    0 -0.10027344095E-01 -0.13239457611E-02  0.11852638741E+02  0.11852895137E+02  0.77302670301E-01 0.  0.
       11    1    1    2    0    0  0.56439860257E-02  0.71462086376E-02  0.14682078812E+00  0.14710379982E+00  0.51109989000E-03 0. -1.
     -623    1    1    2    0    0  0.43833580692E-02 -0.58222628765E-02  0.54045950188E-03  0.25126701063E+02  0.25126700000E+02 0. -1.
     -611    1    3    3    0    0 -0.27058712707E-01  0.80882598644E-02  0.10737509523E+02  0.10737551320E+02  0.10000000000E-01 0. -1.
      611    1    3    3    0    0  0.17031368612E-01 -0.94122056255E-02  0.11151292182E+01  0.11153438172E+01  0.10000000000E-01 0.  1.
</event>
<event>
 7   0  0.6206631E-02  0.9118800E+02  0.7818608E-02  0.1180000E+00
       11   -1    0    0    0    0  0.00000000000E+00  0.00000000000E+00  0.11999999989E+02  0.12000000000E+02  0.51109989000E-03 0.  1.
     -623   -1    0    0    0    0  0.00000000000E+00  0.00000000000E+00  0.42561509872E-11  0.25126700000E+02  0.25126700000E+02 0.  1.
      622    2    1    2    0    0 -0.25312148077E-02  0.37216435758E-03  0.11976484089E+02  0.11976900325E+02  0.99818436562E-01 0.  0.
       11    1    1    2    0    0  0.23458110318E-02  0.15309750868E-02  0.22923424140E-01  0.23099595484E-01  0.51109989000E-03 0.  1.
     -623    1    1    2    0    0  0.18540377590E-03 -0.19031394444E-02  0.59247641247E-03  0.25126700080E+02  0.25126700000E+02 0.  1.
     -611    1    3    3    0    0  0.31069903942E-01  0.13591438476E-01  0.17996917966E+01  0.18000390632E+01  0.10000000000E-01 0. -1.
      611    1    3    3    0    0 -0.33601118750E-01 -0.13219274119E-01  0.10176792292E+02  0.10176861262E+02  0.10000000000E-01 0.  1.
</event>
<event>
 7   0  0.6206631E-02  0.9118800E+02  0.7818608E-02  0.1180000E+00
       11   -1    0    0    0    0  0.00000000000E+00  0.00000000000E+00  0.11999999989E+02  0.12000000000E+02  0.51109989000E-03 0.  1.
     -623   -1    0    0    0    0  0.00000000000E+00  0.00000000000E+00  0.42561509872E-11  0.25126700000E+02  0.25126700000E+02 0.  1.
      622    2    1    2    0    0 -0.18253038472E-01  0.84910063694E-02  0.10778360196E+02  0.10778715376E+02  0.85154943886E-01 0.  0.
       11    1    1    2    0    0  0.18133185194E-01 -0.89116687859E-02  0.12211173653E+01  0.12212846152E+01  0.51109989000E-03 0.  1.
     -623    1    1    2    0    0  0.11985327807E-03  0.42066241644E-03  0.52242792469E-03  0.25126700009E+02  0.25126700000E+02 0.  1.
     -611    1    3    3    0    0  0.29983944350E-02 -0.35171510850E-01  0.37139202298E+01  0.37141014390E+01  0.10000000000E-01 0. -1.
      611    1    3    3    0    0 -0.21251432907E-01  0.43662517219E-01  0.70644399661E+01  0.70646139366E+01  0.10000000000E-01 0.  1.
</event>
<event>
 7   0  0.6206631E-02  0.9118800E+02  0.7818608E-02  0.1180000E+00
       11   -1    0    0    0    0  0.00000000000E+00  0.00000000000E+00  0.11999999989E+02  0.12000000000E+02  0.51109989000E-03 0.  1.
     -623   -1    0    0    0    0  0.00000000000E+00  0.00000000000E+00  0.42561509872E-11  0.25126700000E+02  0.25126700000E+02 0. -1.
      622    2    1    2    0    0 -0.69124643502E-02 -0.22893918223E-02  0.90269130812E+01  0.90269731001E+01  0.32102179637E-01 0.  0.
       11    1    1    2    0    0  0.68114576703E-02  0.25811572032E-02  0.29730179307E+01  0.29730268979E+01  0.51109989000E-03 0.  1.
     -623    1    1    2    0    0  0.10100667983E-03 -0.29176538090E-03  0.68977187636E-04  0.25126700002E+02  0.25126700000E+02 0. -1.
     -611    1    3    3    0    0 -0.12869632609E-01  0.58366780207E-02  0.36213279731E+01  0.36213693519E+01  0.10000000000E-01 0.  1.
      611    1    3    3    0    0  0.59571682587E-02 -0.81260698431E-02  0.54055851082E+01  0.54056037482E+01  0.10000000000E-01 0. -1.
</event>
<event>
 7   0  0.6206631E-02  0.9118800E+02  0.7818608E-02  0.1180000E+00
       11   -1    0    0    0    0  0.00000000000E+00  0.00000000000E+00  0.11999999989E+02  0.12000000000E+02  0.51109989000E-03 0. -1.
     -623   -1    0    0    0    0  0.00000000000E+00  0.00000000000E+00  0.42561509872E-11  0.25126700000E+02  0.25126700000E+02 0. -1.
      622    2    1    2    0    0  0.32048766481E-01  0.26160714329E-01  0.10583060861E+02  0.10583303100E+02  0.58445029729E-01 0.  0.
       11    1    1    2    0    0 -0.33641710641E-01 -0.16273167287E-01  0.14162018140E+01  0.14166948930E+01  0.51109989000E-03 0. -1.
     -623    1    1    2    0    0  0.15929441602E-02 -0.98875470425E-02  0.73731427769E-03  0.25126702007E+02  0.25126700000E+02 0. -1.
     -611    1    3    3    0    0  0.29480149680E-01  0.33201513689E-01  0.45153304465E+01  0.45155598170E+01  0.10000000000E-01 0.  1.
      611    1    3    3    0    0  0.25686168006E-02 -0.70407993600E-02  0.60677304143E+01  0.60677432833E+01  0.10000000000E-01 0. -1.
</event>
<event>
 7   0  0.6206631E-02  0.9118800E+02  0.7818608E-02  0.1180000E+00
       11   -1    0    0    0    0  0.00000000000E+00  0.00000000000E+00  0.11999999989E+02  0.12000000000E+02  0.51109989000E-03 0.  1.
     -623   -1    0    0    0    0  0.00000000000E+00  0.00000000000E+00  0.42561509872E-11  0.25126700000E+02  0.25126700000E+02 0.  1.
      622    2    1    2    0    0 -0.68638502201E-02  0.66735384318E-01  0.11646920284E+02  0.11648200725E+02  0.15914552278E+00 0.  0.
       11    1    1    2    0    0 -0.55997665189E-02 -0.60467840745E-01  0.34651323604E+00  0.35179454391E+00  0.51109989000E-03 0.  1.
     -623    1    1    2    0    0  0.12463616739E-01 -0.62675435734E-02  0.65664685728E-02  0.25126704731E+02  0.25126700000E+02 0.  1.
     -611    1    3    3    0    0 -0.10282052874E-02  0.20621909864E-01  0.10747632788E+02  0.10747657273E+02  0.10000000000E-01 0.  1.
      611    1    3    3    0    0 -0.58356449327E-02  0.46113474455E-01  0.89928749659E+00  0.90054345192E+00  0.10000000000E-01 0. -1.
</event>
<event>
 7   0  0.6206631E-02  0.9118800E+02  0.7818608E-02  0.1180000E+00
       11   -1    0    0    0    0  0.00000000000E+00  0.00000000000E+00  0.11999999989E+02  0.12000000000E+02  0.51109989000E-03 0. -1.
     -623   -1    0    0    0    0  0.00000000000E+00  0.00000000000E+00  0.42561509872E-11  0.25126700000E+02  0.25126700000E+02 0.  1.
      622    2    1    2    0    0 -0.89877409766E-02 -0.23393959461E-01  0.11659528007E+02  0.11659827296E+02  0.79694282807E-01 0.  0.
       11    1    1    2    0    0 -0.25690785473E-01  0.33195833201E-01  0.33754633784E+00  0.34014669073E+00  0.51109989000E-03 0. -1.
     -623    1    1    2    0    0  0.34678526450E-01 -0.98018737396E-02  0.29256442729E-02  0.25126726013E+02  0.25126700000E+02 0.  1.
     -611    1    3    3    0    0  0.26820482221E-01 -0.29893482076E-02  0.80292584913E+01  0.80293100697E+01  0.10000000000E-01 0. -1.
      611    1    3    3    0    0 -0.35808223198E-01 -0.20404611254E-01  0.36302695156E+01  0.36305172267E+01  0.10000000000E-01 0.  1.
</event>
<event>
 7   0  0.6206631E-02  0.9118800E+02  0.7818608E-02  0.1180000E+00
       11   -1    0    0    0    0  0.00000000000E+00  0.00000000000E+00  0.11999999989E+02  0.12000000000E+02  0.51109989000E-03 0.  1.
     -623   -1    0    0    0    0  0.00000000000E+00  0.00000000000E+00  0.42561509872E-11  0.25126700000E+02  0.25126700000E+02 0. -1.
      622    2    1    2    0    0 -0.77716124812E-03  0.28920543387E-02  0.97590003292E+01  0.97593443444E+01  0.81887972513E-01 0.  0.
       11    1    1    2    0    0 -0.38422472488E-02 -0.25409791724E-02  0.22406504327E+01  0.22406552261E+01  0.51109989000E-03 0.  1.
     -623    1    1    2    0    0  0.46194084970E-02 -0.35107516624E-03  0.34922725847E-03  0.25126700430E+02  0.25126700000E+02 0. -1.
     -611    1    3    3    0    0  0.10703928369E-01  0.32904585566E-01  0.75667174630E+01  0.75668031856E+01  0.10000000000E-01 0.  1.
      611    1    3    3    0    0 -0.11481089617E-01 -0.30012531228E-01  0.21922828662E+01  0.21925411588E+01  0.10000000000E-01 0. -1.
</event>
<event>
 7   0  0.6206631E-02  0.9118800E+02  0.7818608E-02  0.1180000E+00
       11   -1    0    0    0    0  0.00000000000E+00  0.00000000000E+00  0.11999999989E+02  0.12000000000E+02  0.51109989000E-03 0.  1.
     -623   -1    0    0    0    0  0.00000000000E+00  0.00000000000E+00  0.42561509872E-11  0.25126700000E+02  0.25126700000E+02 0.  1.
      622    2    1    2    0    0 -0.22896558833E-01 -0.10515766955E+00  0.11059021565E+02  0.11060481582E+02  0.14391825126E+00 0.  0.
       11    1    1    2    0    0  0.44077699824E-01 -0.56136417448E-02  0.93821343177E+00  0.93926517096E+00  0.51109989000E-03 0.  1.
     -623    1    1    2    0    0 -0.21181140991E-01  0.11077131130E+00  0.27649919695E-02  0.25126953247E+02  0.25126700000E+02 0.  1.
     -611    1    3    3    0    0 -0.46499125706E-01 -0.65170490809E-01  0.10067243705E+02  0.10067566994E+02  0.10000000000E-01 0.  1.
      611    1    3    3    0    0  0.23602566873E-01 -0.39987178744E-01  0.99177786011E+00  0.99291458819E+00  0.10000000000E-01 0. -1.
</event>
<event>
 7   0  0.6206631E-02  0.9118800E+02  0.7818608E-02  0.1180000E+00
       11   -1    0    0    0    0  0.00000000000E+00  0.00000000000E+00  0.11999999989E+02  0.12000000000E+02  0.51109989000E-03 0. -1.
     -623   -1    0    0    0    0  0.00000000000E+00  0.00000000000E+00  0.42561509872E-11  0.25126700000E+02  0.25126700000E+02 0. -1.
      622    2    1    2    0    0  0.67375875177E-02 -0.87239714240E-02  0.11781220592E+02  0.11781751038E+02  0.11125370296E+00 0.  0.
       11    1    1    2    0    0 -0.36336940572E-03 -0.11018515120E-02  0.21824254368E+00  0.21824622610E+00  0.51109989000E-03 0. -1.
     -623    1    1    2    0    0 -0.63742181120E-02  0.98258229360E-02  0.53685321283E-03  0.25126702735E+02  0.25126700000E+02 0. -1.
     -611    1    3    3    0    0  0.37444885142E-01  0.19905909363E-01  0.96247820296E+01  0.96248806476E+01  0.10000000000E-01 0. -1.
      611    1    3    3    0    0 -0.30707297624E-01 -0.28629880788E-01  0.21564385627E+01  0.21568703908E+01  0.10000000000E-01 0.  1.
</event>
<event>
 7   0  0.6206631E-02  0.9118800E+02  0.7818608E-02  0.1180000E+00
       11   -1    0    0    0    0  0.00000000000E+00  0.00000000000E+00  0.11999999989E+02  0.12000000000E+02  0.51109989000E-03 0.  1.
     -623   -1    0    0    0    0  0.00000000000E+00  0.00000000000E+00  0.42561509872E-11  0.25126700000E+02  0.25126700000E+02 0. -1.
      622    2    1    2    0    0 -0.33808466569E-01  0.45196401702E-02  0.92050042388E+01  0.92055075782E+01  0.90018312010E-01 0.  0.
       11    1    1    2    0    0 -0.74813604191E-02 -0.13029008605E-01  0.27944166141E+01  0.27944570493E+01  0.51109989000E-03 0.  1.
     -623    1    1    2    0    0  0.41289826988E-01  0.85093684346E-02  0.57913628985E-03  0.25126735373E+02  0.25126700000E+02 0. -1.
     -611    1    3    3    0    0 -0.12734485431E-01 -0.16228600862E-01  0.81710278416E+01  0.81710600000E+01  0.10000000000E-01 0.  1.
      611    1    3    3    0    0 -0.21073981138E-01  0.20748241032E-01  0.10339763971E+01  0.10344475782E+01  0.10000000000E-01 0. -1.
</event>
<event>
 7   0  0.6206631E-02  0.9118800E+02  0.7818608E-02  0.1180000E+00
       11   -1    0    0    0    0  0.00000000000E+00  0.00000000000E+00  0.11999999989E+02  0.12000000000E+02  0.51109989000E-03 0. -1.
     -623   -1    0    0    0    0  0.00000000000E+00  0.00000000000E+00  0.42561509872E-11  0.25126700000E+02  0.25126700000E+02 0.  1.
      622    2    1    2    0    0 -0.23162015989E-01 -0.43541406047E-01  0.11341991120E+02  0.11342436596E+02  0.87595791903E-01 0.  0.
       11    1    1    2    0    0  0.26449056543E-01  0.98194830318E-02  0.65693479328E+00  0.65754053767E+00  0.51109989000E-03 0. -1.
     -623    1    1    2    0    0 -0.32870405541E-02  0.33721923015E-01  0.10740755985E-02  0.25126722867E+02  0.25126700000E+02 0.  1.
     -611    1    3    3    0    0 -0.16256998798E-01  0.20201061872E-01  0.17002868981E+01  0.17005140131E+01  0.10000000000E-01 0. -1.
      611    1    3    3    0    0 -0.69050171909E-02 -0.63742467919E-01  0.96417042222E+01  0.96419225826E+01  0.10000000000E-01 0. -1.
</event>
<event>
 7   0  0.6206631E-02  0.9118800E+02  0.7818608E-02  0.1180000E+00
       11   -1    0    0    0    0  0.00000000000E+00  0.00000000000E+00  0.11999999989E+02  0.12000000000E+02  0.51109989000E-03 0.  1.
     -623   -1    0    0    0    0  0.00000000000E+00  0.00000000000E+00  0.42561509872E-11  0.25126700000E+02  0.25126700000E+02 0. -1.
      622    2    1    2    0    0  0.16407417840E+00 -0.29318772871E-01  0.39895152421E+01  0.39944830837E+01  0.10901060835E+00 0.  0.
       11    1    1    2    0    0 -0.17910275060E+00  0.45051239986E-01  0.80033759444E+01  0.80055064910E+01  0.51109989000E-03 0.  1.
     -623    1    1    2    0    0  0.15028572202E-01 -0.15732467115E-01  0.71088026185E-02  0.25126710425E+02  0.25126700000E+02 0. -1.
     -611    1    3    3    0    0  0.14555635239E+00 -0.35925397613E-01  0.23394306886E+01  0.23442511027E+01  0.10000000000E-01 0. -1.
      611    1    3    3    0    0  0.18517826011E-01  0.66066247427E-02  0.16500845536E+01  0.16502319810E+01  0.10000000000E-01 0.  1.
</event>
<event>
 7   0  0.6206631E-02  0.9118800E+02  0.7818608E-02  0.1180000E+00
       11   -1    0    0    0    0  0.00000000000E+00  0.00000000000E+00  0.11999999989E+02  0.12000000000E+02  0.51109989000E-03 0. -1.
     -623   -1    0    0    0    0  0.00000000000E+00  0.00000000000E+00  0.42561509872E-11  0.25126700000E+02  0.25126700000E+02 0.  1.
      622    2    1    2    0    0  0.68173761600E-02 -0.42920261840E-03  0.11811442399E+02  0.11811936219E+02  0.10779153853E+00 0.  0.
       11    1    1    2    0    0  0.16559849898E-01  0.18948135594E-01  0.18635388651E+00  0.18804598563E+00  0.51109989000E-03 0. -1.
     -623    1    1    2    0    0 -0.23377226058E-01 -0.18518932976E-01  0.22037032265E-02  0.25126717796E+02  0.25126700000E+02 0.  1.
     -611    1    3    3    0    0  0.31275876355E-01  0.19697298846E-01  0.10510826744E+02  0.10510896490E+02  0.10000000000E-01 0. -1.
      611    1    3    3    0    0 -0.24458500195E-01 -0.20126501465E-01  0.13006156549E+01  0.13010397289E+01  0.10000000000E-01 0. -1.
</event>
<event>
 7   0  0.6206631E-02  0.9118800E+02  0.7818608E-02  0.1180000E+00
       11   -1    0    0    0    0  0.00000000000E+00  0.00000000000E+00  0.11999999989E+02  0.12000000000E+02  0.51109989000E-03 0.  1.
     -623   -1    0    0    0    0  0.00000000000E+00  0.00000000000E+00  0.42561509872E-11  0.25126700000E+02  0.25126700000E+02 0.  1.
      622    2    1    2    0    0  0.12299490630E-02 -0.29247901173E-02  0.11996885512E+02  0.11997462956E+02  0.11766612326E+00 0.  0.
       11    1    1    2    0    0 -0.46566110409E-03 -0.16071357159E-02  0.18366677993E-02  0.25365916485E-02  0.51109989000E-03 0.  1.
     -623    1    1    2    0    0 -0.76428795892E-03  0.45319258332E-02  0.12778094124E-02  0.25126700453E+02  0.25126700000E+02 0.  1.
     -611    1    3    3    0    0 -0.56458707748E-01 -0.11202825093E-01  0.56536203564E+01  0.56539221982E+01  0.10000000000E-01 0. -1.
      611    1    3    3    0    0  0.57688656811E-01  0.82780349757E-02  0.63432651555E+01  0.63435407573E+01  0.10000000000E-01 0.  1.
</event>
<event>
 7   0  0.6206631E-02  0.9118800E+02  0.7818608E-02  0.1180000E+00
       11   -1    0    0    0    0  0.00000000000E+00  0.00000000000E+00  0.11999999989E+02  0.12000000000E+02  0.51109989000E-03 0. -1.
     -623   -1    0    0    0    0  0.00000000000E+00  0.00000000000E+00  0.42561509872E-11  0.25126700000E+02  0.25126700000E+02 0. -1.
      622    2    1    2    0    0 -0.54075631489E-02 -0.44023665854E-01  0.96493346456E+01  0.96497844617E+01  0.81937347854E-01 0.  0.
       11    1    1    2    0    0  0.28503532008E-02  0.39564548808E-01  0.23498801689E+01  0.23502150003E+01  0.51109989000E-03 0. -1.
     -623    1    1    2    0    0  0.25572099480E-02  0.44591170460E-02  0.78517461199E-03  0.25126700538E+02  0.25126700000E+02 0. -1.
     -611    1    3    3    0    0  0.16896918732E-01 -0.59024533744E-01  0.75095699593E+01  0.75098275862E+01  0.10000000000E-01 0. -1.
      611    1    3    3    0    0 -0.22304481881E-01  0.15000867889E-01  0.21397646864E+01  0.21399568755E+01  0.10000000000E-01 0.  1.
</event>
<event>
 7   0  0.6206631E-02  0.9118800E+02  0.7818608E-02  0.1180000E+00
       11   -1    0    0    0    0  0.00000000000E+00  0.00000000000E+00  0.11999999989E+02  0.12000000000E+02  0.51109989000E-03 0. -1.
     -623   -1    0    0    0    0  0.00000000000E+00  0.00000000000E+00  0.42561509872E-11  0.25126700000E+02  0.25126700000E+02 0.  1.
      622    2    1    2    0    0 -0.36696478864E-02 -0.19744415246E-01  0.11932368054E+02  0.11932593290E+02  0.70512051624E-01 0.  0.
       11    1    1    2    0    0  0.16910044905E-01  0.33860089223E-02  0.65152006996E-01  0.67397773805E-01  0.51109989000E-03 0. -1.
     -623    1    1    2    0    0 -0.13240397018E-01  0.16358406323E-01  0.24799281398E-02  0.25126708936E+02  0.25126700000E+02 0.  1.
     -611    1    3    3    0    0 -0.21616173389E-02 -0.17646957208E-01  0.11675324724E+02  0.11675342543E+02  0.10000000000E-01 0. -1.
      611    1    3    3    0    0 -0.15080305475E-02 -0.20974580376E-02  0.25704332979E+00  0.25725074709E+00  0.10000000000E-01 0. -1.
</event>
<event>
 7   0  0.6206631E-02  0.9118800E+02  0.7818608E-02  0.1180000E+00
       11   -1    0    0    0    0  0.00000000000E+00  0.00000000000E+00  0.11999999989E+02  0.12000000000E+02  0.51109989000E-03 0.  1.
     -623   -1    0    0    0    0  0.00000000000E+00  0.00000000000E+00  0.42561509872E-11  0.25126700000E+02  0.25126700000E+02 0.  1.
      622    2    1    2    0    0  0.42806564715E-02 -0.12908639262E-01  0.91874223054E+01  0.91881392085E+01  0.11396728337E+00 0.  0.
       11    1    1    2    0    0 -0.73140653908E-03  0.13984203230E-01  0.28118255909E+01  0.28118605065E+01  0.51109989000E-03 0.  1.
     -623    1    1    2    0    0 -0.35492499324E-02 -0.10755639680E-02  0.75209281341E-03  0.25126700285E+02  0.25126700000E+02 0.  1.
     -611    1    3    3    0    0  0.16294809818E-01  0.43042337063E-01  0.23609191563E+01  0.23613888766E+01  0.10000000000E-01 0. -1.
      611    1    3    3    0    0 -0.12014153347E-01 -0.55950976325E-01  0.68265031490E+01  0.68267503320E+01  0.10000000000E-01 0.  1.
</event>
<event>
 6   0  0.6206631E-02  0.9118800E+02  0.7818608E-02  0.1180000E+00
       11   -1    0    0    0    0  0.00000000000E+00  0.00000000000E+00  0.11999999989E+02  0.12000000000E+02  0.51109989000E-03 0. -1.
     -623   -1    0    0    0    0  0.00000000000E+00  0.00000000000E+00  0.42561509872E-11  0.25126700000E+02  0.25126700000E+02 0.  1.
       11    1    1    2    0    0  0.23978815404E-02  0.25336202679E-01  0.10044728453E+01  0.10047953181E+01  0.51109989000E-03 0. -1.
     -623    1    1    2    0    0  0.30284793467E-02  0.78809118921E-03  0.30588887455E-02  0.25126700381E+02  0.25126700000E+02 0.  1.
     -611    1    1    2    0    0  0.28732975636E-01  0.29395716295E-01  0.10172568537E+02  0.10172656503E+02  0.10000000000E-01 0.  1.
      611    1    1    2    0    0 -0.34159336523E-01 -0.55520010163E-01  0.81989971837E+00  0.82254779800E+00  0.10000000000E-01 0. -1.
</event>
<event>
 7   0  0.6206631E-02  0.9118800E+02  0.7818608E-02  0.1180000E+00
       11   -1    0    0    0    0  0.00000000000E+00  0.00000000000E+00  0.11999999989E+02  0.12000000000E+02  0.51109989000E-03 0.  1.
     -623   -1    0    0    0    0  0.00000000000E+00  0.00000000000E+00  0.42561509872E-11  0.25126700000E+02  0.25126700000E+02 0. -1.
      622    2    1    2    0    0  0.17336477437E-01  0.13541203689E-01  0.11707340068E+02  0.11707874771E+02  0.10970991990E+00 0.  0.
       11    1    1    2    0    0 -0.20278879423E-01  0.28104559243E-02  0.29140097646E+00  0.29211970478E+00  0.51109989000E-03 0.  1.
     -623    1    1    2    0    0  0.29424019856E-02 -0.16351659614E-01  0.12589447643E-02  0.25126705524E+02  0.25126700000E+02 0. -1.
     -611    1    3    3    0    0  0.17239730477E-01  0.56401644306E-01  0.44610578860E+01  0.44614589336E+01  0.10000000000E-01 0. -1.
      611    1    3    3    0    0  0.96746959831E-04 -0.42860440616E-01  0.72462821819E+01  0.72464158373E+01  0.10000000000E-01 0.  1.
</event>
<event>
 7   0  0.6206631E-02  0.9118800E+02  0.7818608E-02  0.1180000E+00
       11   -1    0    0    0    0  0.00000000000E+00  0.00000000000E+00  0.11999999989E+02  0.12000000000E+02  0.51109989000E-03 0. -1.
     -623   -1    0    0    0    0  0.00000000000E+00  0.00000000000E+00  0.42561509872E-11  0.25126700000E+02  0.25126700000E+02 0.  1.
      622    2    1    2    0    0 -0.14381543520E-01 -0.47562481938E-03  0.10251012631E+02  0.10251508904E+02  0.99838819698E-01 0.  0.
       11    1    1    2    0    0  0.17767157239E-01  0.15535905369E-02  0.17483998010E+01  0.17484908381E+01  0.51109989000E-03 0. -1.
     -623    1    1    2    0    0 -0.33856137188E-02 -0.10779657175E-02  0.58755714960E-03  0.25126700258E+02  0.25126700000E+02 0.  1.
     -611    1    3    3    0    0 -0.26424309089E-01 -0.20118905126E-01  0.95229056727E+01  0.95229688367E+01  0.10000000000E-01 0. -1.
      611    1    3    3    0    0  0.12042765569E-01  0.19643280307E-01  0.72810695826E+00  0.72854006707E+00  0.10000000000E-01 0.  1.
</event>
<event>
 7   0  0.6206631E-02  0.9118800E+02  0.7818608E-02  0.1180000E+00
       11   -1    0    0    0    0  0.00000000000E+00  0.00000000000E+00  0.11999999989E+02  0.12000000000E+02  0.51109989000E-03 0.  1.
     -623   -1    0    0    0    0  0.00000000000E+00  0.00000000000E+00  0.42561509872E-11  0.25126700000E+02  0.25126700000E+02 0.  1.
      622    2    1    2    0    0 -0.16050993697E-02  0.26635209914E-02  0.11994362370E+02  0.11994717065E+02  0.92190819985E-01 0.  0.
       11    1    1    2    0    0  0.25812474995E-02 -0.26638603070E-02  0.37266900978E-02  0.52828432327E-02  0.51109989000E-03 0.  1.
     -623    1    1    2    0    0 -0.97614812975E-03  0.33931554627E-06  0.19109293580E-02  0.25126700092E+02  0.25126700000E+02 0.  1.
     -611    1    3    3    0    0 -0.38351875577E-02 -0.26875616540E-01  0.13553022856E+01  0.13556110404E+01  0.10000000000E-01 0. -1.
      611    1    3    3    0    0  0.22300881880E-02  0.29539137532E-01  0.10639060084E+02  0.10639106025E+02  0.10000000000E-01 0.  1.
</event>
<event>
 7   0  0.6206631E-02  0.9118800E+02  0.7818608E-02  0.1180000E+00
       11   -1    0    0    0    0  0.00000000000E+00  0.00000000000E+00  0.11999999989E+02  0.12000000000E+02  0.51109989000E-03 0. -1.
     -623   -1    0    0    0    0  0.00000000000E+00  0.00000000000E+00  0.42561509872E-11  0.25126700000E+02  0.25126700000E+02 0.  1.
      622    2    1    2    0    0  0.14149246180E-01 -0.52885593181E-02  0.54510294872E+01  0.54516351787E+01  0.79846614441E-01 0.  0.
       11    1    1    2    0    0  0.11414920592E+00  0.74704458319E-01  0.65465199777E+01  0.65479412702E+01  0.51109989000E-03 0. -1.
     -623    1    1    2    0    0 -0.12829845210E+00 -0.69415899001E-01  0.24505242444E-02  0.25127123551E+02  0.25126700000E+02 0.  1.
     -611    1    3    3    0    0 -0.53347079531E-02 -0.34869862578E-01  0.15565897222E+01  0.15570214930E+01  0.10000000000E-01 0. -1.
      611    1    3    3    0    0  0.19483954133E-01  0.29581303260E-01  0.38944397649E+01  0.38946136857E+01  0.10000000000E-01 0.  1.
</event>
<event>
 7   0  0.6206631E-02  0.9118800E+02  0.7818608E-02  0.1180000E+00
       11   -1    0    0    0    0  0.00000000000E+00  0.00000000000E+00  0.11999999989E+02  0.12000000000E+02  0.51109989000E-03 0. -1.
     -623   -1    0    0    0    0  0.00000000000E+00  0.00000000000E+00  0.42561509872E-11  0.25126700000E+02  0.25126700000E+02 0. -1.
      622    2    1    2    0    0 -0.95136893941E-02 -0.97061876216E-02  0.11892770178E+02  0.11893273188E+02  0.10853527941E+00 0.  0.
       11    1    1    2    0    0  0.21646552309E-01 -0.67754510201E-02  0.10427873782E+00  0.10671830372E+00  0.51109989000E-03 0. -1.
     -623    1    1    2    0    0 -0.12132862915E-01  0.16481638642E-01  0.29510734891E-02  0.25126708508E+02  0.25126700000E+02 0. -1.
     -611    1    3    3    0    0  0.22959763728E-01 -0.50449540671E-01  0.61933674725E+01  0.61936235724E+01  0.10000000000E-01 0. -1.
      611    1    3    3    0    0 -0.32473453123E-01  0.40743353050E-01  0.56994027053E+01  0.56996496158E+01  0.10000000000E-01 0.  1.
</event>
<event>
 7   0  0.6206631E-02  0.9118800E+02  0.7818608E-02  0.1180000E+00
       11   -1    0    0    0    0  0.00000000000E+00  0.00000000000E+00  0.11999999989E+02  0.12000000000E+02  0.51109989000E-03 0. -1.
     -623   -1    0    0    0    0  0.00000000000E+00  0.00000000000E+00  0.42561509872E-11  0.25126700000E+02  0.25126700000E+02 0.  1.
      622    2    1    2    0    0 -0.17190555901E-01  0.31371949412E-02  0.96904962554E+01  0.96916545908E+01  0.14881422630E+00 0.  0.
       11    1    1    2    0    0  0.87121521655E-02  0.71427230647E-01  0.23071113164E+01  0.23082332288E+01  0.51109989000E-03 0. -1.
     -623    1    1    2    0    0  0.84784037350E-02 -0.74564425588E-01  0.23924172946E-02  0.25126812180E+02  0.25126700000E+02 0.  1.
     -611    1    3    3    0    0  0.56517601023E-02 -0.27099807393E-01  0.40216888861E+00  0.40324453737E+00  0.10000000000E-01 0. -1.
      611    1    3    3    0    0 -0.22842316003E-01  0.30237002334E-01  0.92883273668E+01  0.92884100535E+01  0.10000000000E-01 0.  1.
</event>
<event>
 7   0  0.6206631E-02  0.9118800E+02  0.7818608E-02  0.1180000E+00
       11   -1    0    0    0    0  0.00000000000E+00  0.00000000000E+00  0.11999999989E+02  0.12000000000E+02  0.51109989000E-03 0.  1.
     -623   -1    0    0    0    0  0.00000000000E+00  0.00000000000E+00  0.42561509872E-11  0.25126700000E+02  0.25126700000E+02 0. -1.
      622    2    1    2    0    0  0.12091580071E+00 -0.22104736931E+00  0.72452262102E+01  0.72505720751E+01  0.11836387919E+00 0.  0.
       11    1    1    2    0    0 -0.97035610562E-01  0.15676958408E+00  0.47457526927E+01  0.47493327420E+01  0.51109989000E-03 0.  1.
     -623    1    1    2    0    0 -0.23880190149E-01  0.64277785228E-01  0.90210861687E-02  0.25126795183E+02  0.25126700000E+02 0. -1.
     -611    1    3    3    0    0 -0.21329853091E-01 -0.51835837439E-01  0.13879028320E+01  0.13890702602E+01  0.10000000000E-01 0. -1.
      611    1    3    3    0    0  0.14224565380E+00 -0.16921153187E+00  0.58573233782E+01  0.58615018148E+01  0.10000000000E-01 0.  1.
</event>
<event>
 7   0  0.6206631E-02  0.9118800E+02  0.7818608E-02  0.1180000E+00
       11   -1    0    0    0    0  0.00000000000E+00  0.00000000000E+00  0.11999999989E+02  0.12000000000E+02  0.51109989000E-03 0. -1.
     -623   -1    0    0    0    0  0.00000000000E+00  0.00000000000E+00  0.42561509872E-11  0.25126700000E+02  0.25126700000E+02 0.  1.
      622    2    1    2    0    0  0.13495190437E-02  0.24119104268E-01  0.10676584732E+02  0.10677245291E+02  0.11628378679E+00 0.  0.
       11    1    1    2    0    0 -0.35302012262E-02 -0.21949109077E-01  0.13225675776E+01  0.13227545064E+01  0.51109989000E-03 0. -1.
     -623    1    1    2    0    0  0.21806821825E-02 -0.21699951908E-02  0.84767988944E-03  0.25126700203E+02  0.25126700000E+02 0.  1.
     -611    1    3    3    0    0 -0.36888666422E-01  0.39676588369E-01  0.27771952188E+01  0.27777415806E+01  0.10000000000E-01 0.  1.
      611    1    3    3    0    0  0.38238185465E-01 -0.15557484102E-01  0.78993895128E+01  0.78995037103E+01  0.10000000000E-01 0. -1.
</event>
<event>
 7   0  0.6206631E-02  0.9118800E+02  0.7818608E-02  0.1180000E+00
       11   -1    0    0    0    0  0.00000000000E+00  0.00000000000E+00  0.11999999989E+02  0.12000000000E+02  0.51109989000E-03 0. -1.
     -623   -1    0    0    0    0  0.00000000000E+00  0.00000000000E+00  0.42561509872E-11  0.25126700000E+02  0.25126700000E+02 0.  1.
      622    2    1    2    0    0  0.19966945896E-01 -0.10417075314E-01  0.11830747952E+02  0.11831249654E+02  0.10660242864E+00 0.  0.
       11    1    1    2    0    0 -0.21161369693E-01  0.81967447589E-02  0.16721649852E+00  0.16875013717E+00  0.51109989000E-03 0. -1.
     -623    1    1    2    0    0  0.11944237973E-02  0.22203305555E-02  0.20355387298E-02  0.25126700209E+02  0.25126700000E+02 0.  1.
     -611    1    3    3    0    0  0.78750772458E-02 -0.39516664801E-01  0.10529320248E+02  0.10529402094E+02  0.10000000000E-01 0. -1.
      611    1    3    3    0    0  0.12091868650E-01  0.29099589487E-01  0.13014277041E+01  0.13018475596E+01  0.10000000000E-01 0.  1.
</event>
<event>
 7   0  0.6206631E-02  0.9118800E+02  0.7818608E-02  0.1180000E+00
       11   -1    0    0    0    0  0.00000000000E+00  0.00000000000E+00  0.11999999989E+02  0.12000000000E+02  0.51109989000E-03 0. -1.
     -623   -1    0    0    0    0  0.00000000000E+00  0.00000000000E+00  0.42561509872E-11  0.25126700000E+02  0.25126700000E+02 0. -1.
      622    2    1    2    0    0  0.26673123483E-01  0.51506339151E-02  0.90256763586E+01  0.90262675157E+01  0.99667197602E-01 0.  0.
       11    1    1    2    0    0  0.88183223507E-02 -0.63582620999E-01  0.29729464746E+01  0.29736394393E+01  0.51109989000E-03 0. -1.
     -623    1    1    2    0    0 -0.35491445834E-01  0.58431987084E-01  0.13771558576E-02  0.25126793045E+02  0.25126700000E+02 0. -1.
     -611    1    3    3    0    0 -0.24710571704E-01 -0.29926564625E-01  0.32310847232E+01  0.32313332697E+01  0.10000000000E-01 0. -1.
      611    1    3    3    0    0  0.51383695187E-01  0.35077198540E-01  0.57945916354E+01  0.57949342460E+01  0.10000000000E-01 0. -1.
</event>
<event>
 7   0  0.6206631E-02  0.9118800E+02  0.7818608E-02  0.1180000E+00
       11   -1    0    0    0    0  0.00000000000E+00  0.00000000000E+00  0.11999999989E+02  0.12000000000E+02  0.51109989000E-03 0. -1.
     -623   -1    0    0    0    0  0.00000000000E+00  0.00000000000E+00  0.42561509872E-11  0.25126700000E+02  0.25126700000E+02 0.  1.
      622    2    1    2    0    0  0.20543936494E-01  0.82421511531E-02  0.88594069718E+01  0.88597484703E+01  0.74572643633E-01 0.  0.
       11    1    1    2    0    0  0.25245573211E-01 -0.14669847294E-01  0.31400731892E+01  0.31402089800E+01  0.51109989000E-03 0. -1.
     -623    1    1    2    0    0 -0.45789509705E-01  0.64276961411E-02  0.51982807871E-03  0.25126742550E+02  0.25126700000E+02 0.  1.
     -611    1    3    3    0    0 -0.20714910342E-01  0.24559411600E-02  0.12076499324E+01  0.12078714742E+01  0.10000000000E-01 0. -1.
      611    1    3    3    0    0  0.41258846836E-01  0.57862099931E-02  0.76517570394E+01  0.76518769961E+01  0.10000000000E-01 0.  1.
</event>
<event>
 7   0  0.6206631E-02  0.9118800E+02  0.7818608E-02  0.1180000E+00
       11   -1    0    0    0    0  0.00000000000E+00  0.00000000000E+00  0.11999999989E+02  0.12000000000E+02  0.51109989000E-03 0.  1.
     -623   -1    0    0    0    0  0.00000000000E+00  0.00000000000E+00  0.42561509872E-11  0.25126700000E+02  0.25126700000E+02 0. -1.
      622    2    1    2    0    0 -0.47382844313E-01  0.10741565826E-01  0.11678503361E+02  0.11679127430E+02  0.11052719886E+00 0.  0.
       11    1    1    2    0    0  0.40495142012E-01  0.41268120509E-02  0.31827424669E+00  0.32086701986E+00  0.51109989000E-03 0.  1.
     -623    1    1    2    0    0  0.68877023004E-02 -0.14868377877E-01  0.32223811724E-02  0.25126705550E+02  0.25126700000E+02 0. -1.
     -611    1    3    3    0    0 -0.34849058280E-01  0.43886482655E-01  0.10222823908E+02  0.10222982399E+02  0.10000000000E-01 0.  1.
      611    1    3    3    0    0 -0.12533786032E-01 -0.33144916829E-01  0.14556794530E+01  0.14561450309E+01  0.10000000000E-01 0. -1.
</event>
<event>
 7   0  0.6206631E-02  0.9118800E+02  0.7818608E-02  0.1180000E+00
       11   -1    0    0    0    0  0.00000000000E+00  0.00000000000E+00  0.11999999989E+02  0.12000000000E+02  0.51109989000E-03 0. -1.
     -623   -1    0    0    0    0  0.00000000000E+00  0.00000000000E+00  0.42561509872E-11  0.25126700000E+02  0.25126700000E+02 0.  1.
      622    2    1    2    0    0 -0.40967199947E-02  0.15700827835E-01  0.11676635896E+02  0.11677191563E+02  0.11275484728E+00 0.  0.
       11    1    1    2    0    0 -0.84905315325E-04  0.10546599963E-04  0.32280275470E+00  0.32280317065E+00  0.51109989000E-03 0. -1.
     -623    1    1    2    0    0  0.41816253100E-02 -0.15711374435E-01  0.56133850070E-03  0.25126705266E+02  0.25126700000E+02 0.  1.
     -611    1    3    3    0    0  0.27535008235E-01 -0.39535742262E-01  0.54630544169E+01  0.54632760148E+01  0.10000000000E-01 0.  1.
      611    1    3    3    0    0 -0.31631728230E-01  0.55236570097E-01  0.62135814790E+01  0.62139155483E+01  0.10000000000E-01 0. -1.
</event>
<event>
 7   0  0.6206631E-02  0.9118800E+02  0.7818608E-02  0.1180000E+00
       11   -1    0    0    0    0  0.00000000000E+00  0.00000000000E+00  0.11999999989E+02  0.12000000000E+02  0.51109989000E-03 0.  1.
     -623   -1    0    0    0    0  0.00000000000E+00  0.00000000000E+00  0.42561509872E-11  0.25126700000E+02  0.25126700000E+02 0.  1.
      622    2    1    2    0    0 -0.17393047487E-02 -0.27941221236E-01  0.11526213999E+02  0.11526695280E+02  0.10154400301E+00 0.  0.
       11    1    1    2    0    0 -0.76911260824E-02  0.29055500123E-01  0.47234731246E+00  0.47330288434E+00  0.51109989000E-03 0.  1.
     -623    1    1    2    0    0  0.94304308311E-02 -0.11142788870E-02  0.14386773346E-02  0.25126701836E+02  0.25126700000E+02 0.  1.
     -611    1    3    3    0    0  0.21962867440E-01 -0.49535677702E-01  0.97979664658E+01  0.97981214024E+01  0.10000000000E-01 0.  1.
      611    1    3    3    0    0 -0.23702172188E-01  0.21594456466E-01  0.17282475335E+01  0.17285738777E+01  0.10000000000E-01 0. -1.
</event>
<event>
 7   0  0.6206631E-02  0.9118800E+02  0.7818608E-02  0.1180000E+00
       11   -1    0    0    0    0  0.00000000000E+00  0.00000000000E+00  0.11999999989E+02  0.12000000000E+02  0.51109989000E-03 0.  1.
     -623   -1    0    0    0    0  0.00000000000E+00  0.00000000000E+00  0.42561509872E-11  0.25126700000E+02  0.25126700000E+02 0. -1.
      622    2    1    2    0    0  0.34268463180E-01 -0.60047014194E-01  0.36532615305E+01  0.36556962323E+01  0.11408401081E+00 0.  0.
       11    1    1    2    0    0 -0.88156962064E-02  0.46527805732E-01  0.83441527129E+01  0.83442871062E+01  0.51109989000E-03 0.  1.
     -623    1    1    2    0    0 -0.25452766973E-01  0.13519208462E-01  0.25857457905E-02  0.25126716662E+02  0.25126700000E+02 0. -1.
     -611    1    3    3    0    0  0.75688628499E-01 -0.40215384246E-01  0.24347242425E+01  0.24362528980E+01  0.10000000000E-01 0. -1.
      611    1    3    3    0    0 -0.41420165319E-01 -0.19831629948E-01  0.12185372879E+01  0.12194433344E+01  0.10000000000E-01 0.  1.
</event>
<event>
 7   0  0.6206631E-02  0.9118800E+02  0.7818608E-02  0.1180000E+00
       11   -1    0    0    0    0  0.00000000000E+00  0.00000000000E+00  0.11999999989E+02  0.12000000000E+02  0.51109989000E-03 0.  1.
     -623   -1    0    0    0    0  0.00000000000E+00  0.00000000000E+00  0.42561509872E-11  0.25126700000E+02  0.25126700000E+02 0. -1.
      622    2    1    2    0    0  0.13833744362E-02 -0.22425869631E-02  0.11938424885E+02  0.11938800174E+02  0.94625082544E-01 0.  0.
       11    1    1    2    0    0 -0.58294814290E-03 -0.60644348336E-03  0.61191732989E-01  0.61199648786E-01  0.51109989000E-03 0.  1.
     -623    1    1    2    0    0 -0.80042629329E-03  0.28490304465E-02  0.38337066165E-03  0.25126700177E+02  0.25126700000E+02 0. -1.
     -611    1    3    3    0    0 -0.29324484328E-01  0.62831559999E-02  0.15537740158E+01  0.15540955877E+01  0.10000000000E-01 0. -1.
      611    1    3    3    0    0  0.30707858764E-01 -0.85257429630E-02  0.10384650870E+02  0.10384704586E+02  0.10000000000E-01 0.  1.
</event>
<event>
 7   0  0.6206631E-02  0.9118800E+02  0.7818608E-02  0.1180000E+00
       11   -1    0    0    0    0  0.00000000000E+00  0.00000000000E+00  0.11999999989E+02  0.12000000000E+02  0.51109989000E-03 0.  1.
     -623   -1    0    0    0    0  0.00000000000E+00  0.00000000000E+00  0.42561509872E-11  0.25126700000E+02  0.25126700000E+02 0. -1.
      622    2    1    2    0    0  0.22380045746E-02 -0.18159679260E-02  0.11989872246E+02  0.11990518504E+02  0.12445562300E+00 0.  0.
       11    1    1    2    0    0 -0.24798718220E-02 -0.97560308458E-03  0.90847458695E-02  0.94813182780E-02  0.51109989000E-03 0.  1.
     -623    1    1    2    0    0  0.24186724738E-03  0.27915710106E-02  0.10429969581E-02  0.25126700178E+02  0.25126700000E+02 0. -1.
     -611    1    3    3    0    0 -0.22866837681E-01  0.27447724191E-01  0.12012216191E+01  0.12017943452E+01  0.10000000000E-01 0. -1.
      611    1    3    3    0    0  0.25104842256E-01 -0.29263692117E-01  0.10788650627E+02  0.10788724159E+02  0.10000000000E-01 0.  1.
</event>
<event>
 7   0  0.6206631E-02  0.9118800E+02  0.7818608E-02  0.1180000E+00
       11   -1    0    0    0    0  0.00000000000E+00  0.00000000000E+00  0.11999999989E+02  0.12000000000E+02  0.51109989000E-03 0. -1.
     -623   -1    0    0    0    0  0.00000000000E+00  0.00000000000E+00  0.42561509872E-11  0.25126700000E+02  0.25126700000E+02 0.  1.
      622    2    1    2    0    0 -0.40672051818E-03  0.54455295075E-02  0.11968379851E+02  0.11968872125E+02  0.10841523261E+00 0.  0.
       11    1    1    2    0    0 -0.28254439052E-02 -0.84903442320E-02  0.29809156987E-01  0.31127417848E-01  0.51109989000E-03 0. -1.
     -623    1    1    2    0    0  0.32321644234E-02  0.30448147246E-02  0.18109814048E-02  0.25126700458E+02  0.25126700000E+02 0.  1.
     -611    1    3    3    0    0 -0.49211243706E-01 -0.17989249710E-01  0.62101455842E+01  0.62103746696E+01  0.10000000000E-01 0. -1.
      611    1    3    3    0    0  0.48804523188E-01  0.23434779217E-01  0.57582342665E+01  0.57584974549E+01  0.10000000000E-01 0.  1.
</event>
<event>
 7   0  0.6206631E-02  0.9118800E+02  0.7818608E-02  0.1180000E+00
       11   -1    0    0    0    0  0.00000000000E+00  0.00000000000E+00  0.11999999989E+02  0.12000000000E+02  0.51109989000E-03 0.  1.
     -623   -1    0    0    0    0  0.00000000000E+00  0.00000000000E+00  0.42561509872E-11  0.25126700000E+02  0.25126700000E+02 0. -1.
      622    2    1    2    0    0 -0.22602109962E-01 -0.40145526743E-01  0.70470895940E+01  0.70481079793E+01  0.11059757252E+00 0.  0.
       11    1    1    2    0    0  0.21815774664E-01  0.42539327145E-01  0.49516610589E+01  0.49518918633E+01  0.51109989000E-03 0.  1.
     -623    1    1    2    0    0  0.78633529873E-03 -0.23938004022E-02  0.12493361932E-02  0.25126700157E+02  0.25126700000E+02 0. -1.
     -611    1    3    3    0    0 -0.52299942715E-01 -0.54369364035E-01  0.33784698619E+01  0.33793268442E+01  0.10000000000E-01 0.  1.
      611    1    3    3    0    0  0.29697832752E-01  0.14223837292E-01  0.36686197321E+01  0.36687811351E+01  0.10000000000E-01 0. -1.
</event>
<event>
 7   0  0.6206631E-02  0.9118800E+02  0.7818608E-02  0.1180000E+00
       11   -1    0    0    0    0  0.00000000000E+00  0.00000000000E+00  0.11999999989E+02  0.12000000000E+02  0.51109989000E-03 0. -1.
     -623   -1    0    0    0    0  0.00000000000E+00  0.00000000000E+00  0.42561509872E-11  0.25126700000E+02  0.25126700000E+02 0.  1.
      622    2    1    2    0    0  0.24084165547E-02 -0.98773502729E-02  0.11872424681E+02  0.11872912982E+02  0.10719837723E+00 0.  0.
       11    1    1    2    0    0  0.15220248117E-01  0.40244910520E-02  0.12610012084E+00  0.12708010930E+00  0.51109989000E-03 0. -1.
     -623    1    1    2    0    0 -0.17628664672E-01  0.58528592209E-02  0.14751868662E-02  0.25126706909E+02  0.25126700000E+02 0.  1.
     -611    1    3    3    0    0  0.34146203949E-01 -0.76846065725E-03  0.10481770391E+02  0.10481830807E+02  0.10000000000E-01 0. -1.
      611    1    3    3    0    0 -0.31737787395E-01 -0.91088896156E-02  0.13906542909E+01  0.13910821743E+01  0.10000000000E-01 0.  1.
</event>
<event>
 7   0  0.6206631E-02  0.9118800E+02  0.7818608E-02  0.1180000E+00
       11   -1    0    0    0    0  0.00000000000E+00  0.00000000000E+00  0.11999999989E+02  0.12000000000E+02  0.51109989000E-03 0.  1.
     -623   -1    0    0    0    0  0.00000000000E+00  0.00000000000E+00  0.42561509872E-11  0.25126700000E+02  0.25126700000E+02 0.  1.
      622    2    1    2    0    0 -0.26865638997E-01 -0.75623548864E-02  0.11637413978E+02  0.11637960733E+02  0.10930226803E+00 0.  0.
       11    1    1    2    0    0  0.79689832601E-03 -0.10811931700E-01  0.36185628794E+00  0.36201901505E+00  0.51109989000E-03 0.  1.
     -623    1    1    2    0    0  0.26068740671E-01  0.18374286586E-01  0.72972354209E-03  0.25126720252E+02  0.25126700000E+02 0.  1.
     -611    1    3    3    0    0 -0.71487824025E-02  0.36625578400E-01  0.90063099295E+01  0.90063927898E+01  0.10000000000E-01 0. -1.
      611    1    3    3    0    0 -0.19716856594E-01 -0.44187933287E-01  0.26311040482E+01  0.26315679433E+01  0.10000000000E-01 0.  1.
</event>
<event>
 7   0  0.6206631E-02  0.9118800E+02  0.7818608E-02  0.1180000E+00
       11   -1    0    0    0    0  0.00000000000E+00  0.00000000000E+00  0.11999999989E+02  0.12000000000E+02  0.51109989000E-03 0. -1.
     -623   -1    0    0    0    0  0.00000000000E+00  0.00000000000E+00  0.42561509872E-11  0.25126700000E+02  0.25126700000E+02 0.  1.
      622    2    1    2    0    0  0.11116418306E-02 -0.69298609792E-02  0.11953451917E+02  0.11953771382E+02  0.87110605071E-01 0.  0.
       11    1    1    2    0    0 -0.29254418786E-02  0.50686178686E-02  0.45853696863E-01  0.46228474304E-01  0.51109989000E-03 0. -1.
     -623    1    1    2    0    0  0.18138000480E-02  0.18612431106E-02  0.69437535272E-03  0.25126700144E+02  0.25126700000E+02 0.  1.
     -611    1    3    3    0    0  0.19009876155E-01 -0.29929009629E-01  0.10070667126E+02  0.10070734505E+02  0.10000000000E-01 0. -1.
      611    1    3    3    0    0 -0.17898234324E-01  0.22999148650E-01  0.18827847912E+01  0.18830368763E+01  0.10000000000E-01 0.  1.
</event>
<event>
 7   0  0.6206631E-02  0.9118800E+02  0.7818608E-02  0.1180000E+00
       11   -1    0    0    0    0  0.00000000000E+00  0.00000000000E+00  0.11999999989E+02  0.12000000000E+02  0.51109989000E-03 0.  1.
     -623   -1    0    0    0    0  0.00000000000E+00  0.00000000000E+00  0.42561509872E-11  0.25126700000E+02  0.25126700000E+02 0. -1.
      622    2    1    2    0    0 -0.39735918927E-01  0.29413409953E-01  0.71579834671E+01  0.71595910180E+01  0.14342990700E+00 0.  0.
       11    1    1    2    0    0  0.38536169226E-01 -0.28785145899E-01  0.48401698545E+01  0.48404088776E+01  0.51109989000E-03 0.  1.
     -623    1    1    2    0    0  0.11997497013E-02 -0.62826405407E-03  0.18466675313E-02  0.25126700104E+02  0.25126700000E+02 0. -1.
     -611    1    3    3    0    0 -0.51800502250E-01  0.70105051544E-01  0.27662080306E+01  0.27675991182E+01  0.10000000000E-01 0.  1.
      611    1    3    3    0    0  0.12064583323E-01 -0.40691641590E-01  0.43917754364E+01  0.43919918998E+01  0.10000000000E-01 0. -1.
</event>
<event>
 7   0  0.6206631E-02  0.9118800E+02  0.7818608E-02  0.1180000E+00
       11   -1    0    0    0    0  0.00000000000E+00  0.00000000000E+00  0.11999999989E+02  0.12000000000E+02  0.51109989000E-03 0. -1.
     -623   -1    0    0    0    0  0.00000000000E+00  0.00000000000E+00  0.42561509872E-11  0.25126700000E+02  0.25126700000E+02 0.  1.
      622    2    1    2    0    0  0.57507312740E-02 -0.11230669117E-01  0.11042291490E+02  0.11042395816E+02  0.46312080037E-01 0.  0.
       11    1    1    2    0    0 -0.15885918541E-01  0.62634244549E-02  0.95744924762E+00  0.95760164781E+00  0.51109989000E-03 0. -1.
     -623    1    1    2    0    0  0.10135187267E-01  0.49672446620E-02  0.25925173165E-03  0.25126702536E+02  0.25126700000E+02 0.  1.
     -611    1    3    3    0    0 -0.14301654809E-01  0.43047149607E-02  0.27035427626E+01  0.27036025109E+01  0.10000000000E-01 0. -1.
      611    1    3    3    0    0  0.20052386083E-01 -0.15535384078E-01  0.83387487271E+01  0.83387933048E+01  0.10000000000E-01 0. -1.
</event>
<event>
 7   0  0.6206631E-02  0.9118800E+02  0.7818608E-02  0.1180000E+00
       11   -1    0    0    0    0  0.00000000000E+00  0.00000000000E+00  0.11999999989E+02  0.12000000000E+02  0.51109989000E-03 0.  1.
     -623   -1    0    0    0    0  0.00000000000E+00  0.00000000000E+00  0.42561509872E-11  0.25126700000E+02  0.25126700000E+02 0. -1.
      622    2    1    2    0    0  0.13172104697E-01 -0.68586104692E-01  0.11927381557E+02  0.11928240333E+02  0.12493624866E+00 0.  0.
       11    1    1    2    0    0  0.27949150322E-01  0.51333195867E-01  0.41527100123E-01  0.71700859615E-01  0.51109989000E-03 0.  1.
     -623    1    1    2    0    0 -0.41121255019E-01  0.17252908825E-01  0.31091331862E-01  0.25126758808E+02  0.25126700000E+02 0. -1.
     -611    1    3    3    0    0 -0.20284811661E-01  0.57779959962E-02  0.78322563451E+01  0.78322911281E+01  0.10000000000E-01 0.  1.
      611    1    3    3    0    0  0.33456916358E-01 -0.74364100688E-01  0.40951252120E+01  0.40959492046E+01  0.10000000000E-01 0. -1.
</event>
<event>
 7   0  0.6206631E-02  0.9118800E+02  0.7818608E-02  0.1180000E+00
       11   -1    0    0    0    0  0.00000000000E+00  0.00000000000E+00  0.11999999989E+02  0.12000000000E+02  0.51109989000E-03 0.  1.
     -623   -1    0    0    0    0  0.00000000000E+00  0.00000000000E+00  0.42561509872E-11  0.25126700000E+02  0.25126700000E+02 0.  1.
      622    2    1    2    0    0  0.39875281382E-01 -0.17967367589E+00  0.61044504983E+01  0.61079851077E+01  0.96402913068E-01 0.  0.
       11    1    1    2    0    0 -0.58214008510E-01  0.18109326740E+00  0.58889358968E+01  0.58920072896E+01  0.51109989000E-03 0.  1.
     -623    1    1    2    0    0  0.18338727128E-01 -0.14195915079E-02  0.66135940012E-02  0.25126707603E+02  0.25126700000E+02 0.  1.
     -611    1    3    3    0    0  0.24519082814E-01 -0.15372630200E+00  0.57495839747E+01  0.57516996482E+01  0.10000000000E-01 0.  1.
      611    1    3    3    0    0  0.15356198568E-01 -0.25947373890E-01  0.35486652357E+00  0.35628545943E+00  0.10000000000E-01 0. -1.
</event>
<event>
 7   0  0.6206631E-02  0.9118800E+02  0.7818608E-02  0.1180000E+00
       11   -1    0    0    0    0  0.00000000000E+00  0.00000000000E+00  0.11999999989E+02  0.12000000000E+02  0.51109989000E-03 0. -1.
     -623   -1    0    0    0    0  0.00000000000E+00  0.00000000000E+00  0.42561509872E-11  0.25126700000E+02  0.25126700000E+02 0.  1.
      622    2    1    2    0    0  0.10138382757E-01  0.19457166247E-01  0.11780828094E+02  0.11781469843E+02  0.12099463852E+00 0.  0.
       11    1    1    2    0    0  0.57817896250E-02 -0.29808938953E-01  0.21640231870E+00  0.21852282877E+00  0.51109989000E-03 0. -1.
     -623    1    1    2    0    0 -0.15920172382E-01  0.10351772706E-01  0.27695762391E-02  0.25126707328E+02  0.25126700000E+02 0.  1.
     -611    1    3    3    0    0  0.16901326489E-02 -0.53890296834E-02  0.10817130202E+00  0.10877926627E+00  0.10000000000E-01 0. -1.
      611    1    3    3    0    0  0.84482501084E-02  0.24846195930E-01  0.11672656792E+02  0.11672690576E+02  0.10000000000E-01 0. -1.
</event>
<event>
 7   0  0.6206631E-02  0.9118800E+02  0.7818608E-02  0.1180000E+00
       11   -1    0    0    0    0  0.00000000000E+00  0.00000000000E+00  0.11999999989E+02  0.12000000000E+02  0.51109989000E-03 0. -1.
     -623   -1    0    0    0    0  0.00000000000E+00  0.00000000000E+00  0.42561509872E-11  0.25126700000E+02  0.25126700000E+02 0. -1.
      622    2    1    2    0    0 -0.10779809020E-01  0.10294782150E-01  0.10389126820E+02  0.10389612621E+02  0.99358703997E-01 0.  0.
       11    1    1    2    0    0  0.57829344038E-02 -0.49663641263E-01  0.16095795379E+01  0.16103560071E+01  0.51109989000E-03 0. -1.
     -623    1    1    2    0    0  0.49968746159E-02  0.39368859113E-01  0.12936316178E-02  0.25126731372E+02  0.25126700000E+02 0. -1.
     -611    1    3    3    0    0 -0.17374482682E-02 -0.12758121843E-01  0.96338645816E+01  0.96338783761E+01  0.10000000000E-01 0. -1.
      611    1    3    3    0    0 -0.90423607515E-02  0.23052903993E-01  0.75526223797E+00  0.75573424481E+00  0.10000000000E-01 0.  1.
</event>
<event>
 7   0  0.6206631E-02  0.9118800E+02  0.7818608E-02  0.1180000E+00
       11   -1    0    0    0    0  0.00000000000E+00  0.00000000000E+00  0.11999999989E+02  0.12000000000E+02  0.51109989000E-03 0.  1.
     -623   -1    0    0    0    0  0.00000000000E+00  0.00000000000E+00  0.42561509872E-11  0.25126700000E+02  0.25126700000E+02 0. -1.
      622    2    1    2    0    0 -0.30649588626E-02  0.16300927251E-01  0.86640052272E+01  0.86646063734E+01  0.10070707965E+00 0.  0.
       11    1    1    2    0    0  0.34611485812E-02 -0.14817958006E-01  0.33353588210E+01  0.33353935716E+01  0.51109989000E-03 0.  1.
     -623    1    1    2    0    0 -0.39618971853E-03 -0.14829692455E-02  0.63594091607E-03  0.25126700055E+02  0.25126700000E+02 0. -1.
     -611    1    3    3    0    0 -0.42766315094E-01  0.14677877675E-01  0.22829891086E+01  0.22834587073E+01  0.10000000000E-01 0. -1.
      611    1    3    3    0    0  0.39701356231E-01  0.16230495762E-02  0.63810161186E+01  0.63811476662E+01  0.10000000000E-01 0.  1.
</event>
<event>
 7   0  0.6206631E-02  0.9118800E+02  0.7818608E-02  0.1180000E+00
       11   -1    0    0    0    0  0.00000000000E+00  0.00000000000E+00  0.11999999989E+02  0.12000000000E+02  0.51109989000E-03 0.  1.
     -623   -1    0    0    0    0  0.00000000000E+00  0.00000000000E+00  0.42561509872E-11  0.25126700000E+02  0.25126700000E+02 0.  1.
      622    2    1    2    0    0  0.66779243880E-03  0.15868977680E-02  0.11998215062E+02  0.11998848974E+02  0.12332497934E+00 0.  0.
       11    1    1    2    0    0 -0.99523383064E-03  0.17895458287E-03 -0.20197789338E-03  0.11508837210E-02  0.51109989000E-03 0.  1.
     -623    1    1    2    0    0  0.32744139184E-03 -0.17658523509E-02  0.19869049700E-02  0.25126700143E+02  0.25126700000E+02 0.  1.
     -611    1    3    3    0    0  0.48187674613E-01 -0.58890778518E-02  0.24181728652E+01  0.24186807849E+01  0.10000000000E-01 0. -1.
      611    1    3    3    0    0 -0.47519882174E-01  0.74759756198E-02  0.95800421968E+01  0.95801681886E+01  0.10000000000E-01 0.  1.
</event>
<event>
 7   0  0.6206631E-02  0.9118800E+02  0.7818608E-02  0.1180000E+00
       11   -1    0    0    0    0  0.00000000000E+00  0.00000000000E+00  0.11999999989E+02  0.12000000000E+02  0.51109989000E-03 0.  1.
     -623   -1    0    0    0    0  0.00000000000E+00  0.00000000000E+00  0.42561509872E-11  0.25126700000E+02  0.25126700000E+02 0. -1.
      622    2    1    2    0    0 -0.48251684088E-03 -0.69862853492E-02  0.11865130571E+02  0.11865314824E+02  0.65752187767E-01 0.  0.
       11    1    1    2    0    0 -0.95444650100E-02 -0.59479081258E-03  0.13434111973E+00  0.13468202650E+00  0.51109989000E-03 0.  1.
     -623    1    1    2    0    0  0.10026981851E-01  0.75810761618E-02  0.52829815544E-03  0.25126703150E+02  0.25126700000E+02 0. -1.
     -611    1    3    3    0    0  0.13012034009E-02 -0.30939054692E-01  0.91929870421E+01  0.91930446357E+01  0.10000000000E-01 0.  1.
      611    1    3    3    0    0 -0.17837202418E-02  0.23952769343E-01  0.26721435292E+01  0.26722701879E+01  0.10000000000E-01 0.  1.
</event>
<event>
 7   0  0.6206631E-02  0.9118800E+02  0.7818608E-02  0.1180000E+00
       11   -1    0    0    0    0  0.00000000000E+00  0.00000000000E+00  0.11999999989E+02  0.12000000000E+02  0.51109989000E-03 0. -1.
     -623   -1    0    0    0    0  0.00000000000E+00  0.00000000000E+00  0.42561509872E-11  0.25126700000E+02  0.25126700000E+02 0. -1.
      622    2    1    2    0    0 -0.17305525311E-01  0.26953931041E-01  0.11015134851E+02  0.11015588037E+02  0.94646839598E-01 0.  0.
       11    1    1    2    0    0  0.18990172214E-01 -0.17440128928E-01  0.98407224575E+00  0.98441009281E+00  0.51109989000E-03 0. -1.
     -623    1    1    2    0    0 -0.16846469030E-02 -0.95138021134E-02  0.79289249197E-03  0.25126701870E+02  0.25126700000E+02 0. -1.
     -611    1    3    3    0    0  0.21390493217E-01 -0.22798840389E-01  0.51856471166E+01  0.51857509927E+01  0.10000000000E-01 0.  1.
      611    1    3    3    0    0 -0.38696018528E-01  0.49752771431E-01  0.58294877343E+01  0.58298370444E+01  0.10000000000E-01 0. -1.
</event>
<event>
 7   0  0.6206631E-02  0.9118800E+02  0.7818608E-02  0.1180000E+00
       11   -1    0    0    0    0  0.00000000000E+00  0.00000000000E+00  0.11999999989E+02  0.12000000000E+02  0.51109989000E-03 0.  1.
     -623   -1    0    0    0    0  0.00000000000E+00  0.00000000000E+00  0.42561509872E-11  0.25126700000E+02  0.25126700000E+02 0.  1.
      622    2    1    2    0    0 -0.18169153475E-01 -0.13649748292E-01  0.11265190674E+02  0.11265667863E+02  0.10116837224E+00 0.  0.
       11    1    1    2    0    0  0.16232404069E-01  0.34665190449E-01  0.73332474274E+00  0.73432322986E+00  0.51109989000E-03 0.  1.
     -623    1    1    2    0    0  0.19367494057E-02 -0.21015442157E-01  0.14845719690E-02  0.25126708907E+02  0.25126700000E+02 0.  1.
     -611    1    3    3    0    0 -0.11622175887E-01  0.40671785152E-01  0.33534506555E+01  0.33537323340E+01  0.10000000000E-01 0. -1.
      611    1    3    3    0    0 -0.65469775878E-02 -0.54321533444E-01  0.79117400189E+01  0.79119355292E+01  0.10000000000E-01 0.  1.
</event>
<event>
 7   0  0.6206631E-02  0.9118800E+02  0.7818608E-02  0.1180000E+00
       11   -1    0    0    0    0  0.00000000000E+00  0.00000000000E+00  0.11999999989E+02  0.12000000000E+02  0.51109989000E-03 0.  1.
     -623   -1    0    0    0    0  0.00000000000E+00  0.00000000000E+00  0.42561509872E-11  0.25126700000E+02  0.25126700000E+02 0. -1.
      622    2    1    2    0    0 -0.26608564114E-01 -0.10278087068E-01  0.85648380156E+01  0.85651707553E+01  0.69901213038E-01 0.  0.
       11    1    1    2    0    0  0.17658636705E+00  0.14970260570E-01  0.34298051363E+01  0.34343806411E+01  0.51109989000E-03 0.  1.
     -623    1    1    2    0    0 -0.14997780294E+00 -0.46921735019E-02  0.53568371622E-02  0.25127148604E+02  0.25126700000E+02 0. -1.
     -611    1    3    3    0    0 -0.11826151593E-01 -0.27471364590E-01  0.74089556265E+01  0.74090227432E+01  0.10000000000E-01 0.  1.
      611    1    3    3    0    0 -0.14782412521E-01  0.17193277522E-01  0.11558823891E+01  0.11561480121E+01  0.10000000000E-01 0. -1.
</event>
<event>
 7   0  0.6206631E-02  0.9118800E+02  0.7818608E-02  0.1180000E+00
       11   -1    0    0    0    0  0.00000000000E+00  0.00000000000E+00  0.11999999989E+02  0.12000000000E+02  0.51109989000E-03 0. -1.
     -623   -1    0    0    0    0  0.00000000000E+00  0.00000000000E+00  0.42561509872E-11  0.25126700000E+02  0.25126700000E+02 0. -1.
      622    2    1    2    0    0  0.14842467786E-01 -0.16759391909E-01  0.57025433237E+01  0.57027285247E+01  0.40138398369E-01 0.  0.
       11    1    1    2    0    0 -0.17207426429E-01  0.12224448620E-01  0.62972355580E+01  0.62972709539E+01  0.51109989000E-03 0. -1.
     -623    1    1    2    0    0  0.23649586428E-02  0.45349432881E-02  0.22110747145E-03  0.25126700522E+02  0.25126700000E+02 0. -1.
     -611    1    3    3    0    0  0.49475628245E-03 -0.30453948154E-02  0.39481718684E+00  0.39495585859E+00  0.10000000000E-01 0. -1.
      611    1    3    3    0    0  0.14347711504E-01 -0.13713997093E-01  0.53077261369E+01  0.53077726661E+01  0.10000000000E-01 0. -1.
</event>
<event>
 7   0  0.6206631E-02  0.9118800E+02  0.7818608E-02  0.1180000E+00
       11   -1    0    0    0    0  0.00000000000E+00  0.00000000000E+00  0.11999999989E+02  0.12000000000E+02  0.51109989000E-03 0.  1.
     -623   -1    0    0    0    0  0.00000000000E+00  0.00000000000E+00  0.42561509872E-11  0.25126700000E+02  0.25126700000E+02 0.  1.
      622    2    1    2    0    0  0.12998278214E-01  0.72598895457E-03  0.11737110326E+02  0.11737398925E+02  0.81272553752E-01 0.  0.
       11    1    1    2    0    0 -0.12251245052E-01 -0.19915496951E-02  0.26230703026E+00  0.26260102556E+00  0.51109989000E-03 0.  1.
     -623    1    1    2    0    0 -0.74703316198E-03  0.12655607406E-02  0.58263273689E-03  0.25126700050E+02  0.25126700000E+02 0.  1.
     -611    1    3    3    0    0 -0.30913647378E-01  0.49492378018E-02  0.68635046107E+01  0.68635832981E+01  0.10000000000E-01 0.  1.
      611    1    3    3    0    0  0.43911925592E-01 -0.42232488472E-02  0.48736057154E+01  0.48738156266E+01  0.10000000000E-01 0.  1.
</event>
<event>
 7   0  0.6206631E-02  0.9118800E+02  0.7818608E-02  0.1180000E+00
       11   -1    0    0    0    0  0.00000000000E+00  0.00000000000E+00  0.11999999989E+02  0.12000000000E+02  0.51109989000E-03 0. -1.
     -623   -1    0    0    0    0  0.00000000000E+00  0.00000000000E+00  0.42561509872E-11  0.25126700000E+02  0.25126700000E+02 0.  1.
      622    2    1    2    0    0  0.23310209950E-02 -0.45710469171E-02  0.11385475347E+02  0.11385879195E+02  0.95759322230E-01 0.  0.
       11    1    1    2    0    0 -0.40884101366E-02  0.43902548646E-02  0.61409122385E+00  0.61412073884E+00  0.51109989000E-03 0. -1.
     -623    1    1    2    0    0  0.17573891416E-02  0.18079205244E-03  0.43341838714E-03  0.25126700066E+02  0.25126700000E+02 0.  1.
     -611    1    3    3    0    0 -0.43997064960E-01  0.77725435691E-02  0.63789904754E+01  0.63791547747E+01  0.10000000000E-01 0. -1.
      611    1    3    3    0    0  0.46328085955E-01 -0.12343590486E-01  0.50064848715E+01  0.50067244206E+01  0.10000000000E-01 0.  1.
</event>
<event>
 7   0  0.6206631E-02  0.9118800E+02  0.7818608E-02  0.1180000E+00
       11   -1    0    0    0    0  0.00000000000E+00  0.00000000000E+00  0.11999999989E+02  0.12000000000E+02  0.51109989000E-03 0.  1.
     -623   -1    0    0    0    0  0.00000000000E+00  0.00000000000E+00  0.42561509872E-11  0.25126700000E+02  0.25126700000E+02 0.  1.
      622    2    1    2    0    0 -0.10511359307E+00  0.47019145423E-01  0.24618287408E+01  0.24657908149E+01  0.79144971465E-01 0.  0.
       11    1    1    2    0    0  0.89585003517E-01 -0.13947247924E+00  0.95325925046E+01  0.95340336776E+01  0.51109989000E-03 0.  1.
     -623    1    1    2    0    0  0.15528589553E-01  0.92453333815E-01  0.55787437197E-02  0.25126875507E+02  0.25126700000E+02 0.  1.
     -611    1    3    3    0    0  0.10719807262E-01  0.79592952558E-02  0.23961344891E+00  0.24019340030E+00  0.10000000000E-01 0.  1.
      611    1    3    3    0    0 -0.11583340033E+00  0.39059850168E-01  0.22222152918E+01  0.22255974146E+01  0.10000000000E-01 0.  1.
</event>
<event>
 7   0  0.6206631E-02  0.9118800E+02  0.7818608E-02  0.1180000E+00
       11   -1    0    0    0    0  0.00000000000E+00  0.00000000000E+00  0.11999999989E+02  0.12000000000E+02  0.51109989000E-03 0.  1.
     -623   -1    0    0    0    0  0.00000000000E+00  0.00000000000E+00  0.42561509872E-11  0.25126700000E+02  0.25126700000E+02 0. -1.
      622    2    1    2    0    0 -0.13396341730E-01  0.84686554152E-01  0.28242491226E+01  0.28271114819E+01  0.93941207826E-01 0.  0.
       11    1    1    2    0    0  0.17941070452E-01 -0.82608331361E-01  0.91724982696E+01  0.91728878106E+01  0.51109989000E-03 0.  1.
     -623    1    1    2    0    0 -0.45447287217E-02 -0.20782227907E-02  0.32525969374E-02  0.25126700707E+02  0.25126700000E+02 0. -1.
     -611    1    3    3    0    0 -0.20993435697E-01  0.98543035683E-01  0.19189707111E+01  0.19216399362E+01  0.10000000000E-01 0. -1.
      611    1    3    3    0    0  0.75970939667E-02 -0.13856481531E-01  0.90527841145E+00  0.90547154575E+00  0.10000000000E-01 0.  1.
</event>
<event>
 7   0  0.6206631E-02  0.9118800E+02  0.7818608E-02  0.1180000E+00
       11   -1    0    0    0    0  0.00000000000E+00  0.00000000000E+00  0.11999999989E+02  0.12000000000E+02  0.51109989000E-03 0. -1.
     -623   -1    0    0    0    0  0.00000000000E+00  0.00000000000E+00  0.42561509872E-11  0.25126700000E+02  0.25126700000E+02 0. -1.
      622    2    1    2    0    0 -0.49403110785E-02  0.13479340358E-01  0.11815117127E+02  0.11815718683E+02  0.11836030531E+00 0.  0.
       11    1    1    2    0    0  0.44010689303E-02 -0.60138535912E-02  0.18412873718E+00  0.18428019135E+00  0.51109989000E-03 0. -1.
     -623    1    1    2    0    0  0.53924214813E-03 -0.74654867669E-02  0.75412501599E-03  0.25126701126E+02  0.25126700000E+02 0. -1.
     -611    1    3    3    0    0 -0.41336765166E-02  0.63166098744E-01  0.81357850026E+01  0.81360374047E+01  0.10000000000E-01 0. -1.
      611    1    3    3    0    0 -0.80663456187E-03 -0.49686758386E-01  0.36793321244E+01  0.36796812778E+01  0.10000000000E-01 0.  1.
</event>
<event>
 7   0  0.6206631E-02  0.9118800E+02  0.7818608E-02  0.1180000E+00
       11   -1    0    0    0    0  0.00000000000E+00  0.00000000000E+00  0.11999999989E+02  0.12000000000E+02  0.51109989000E-03 0.  1.
     -623   -1    0    0    0    0  0.00000000000E+00  0.00000000000E+00  0.42561509872E-11  0.25126700000E+02  0.25126700000E+02 0. -1.
      622    2    1    2    0    0  0.11777190562E-02  0.94264491829E-02  0.11213879354E+02  0.11214086648E+02  0.67519891455E-01 0.  0.
       11    1    1    2    0    0 -0.38386368548E-02 -0.10309372447E-01  0.78583603207E+00  0.78591319420E+00  0.51109989000E-03 0.  1.
     -623    1    1    2    0    0  0.26609177987E-02  0.88292326433E-03  0.28460317612E-03  0.25126700158E+02  0.25126700000E+02 0. -1.
     -611    1    3    3    0    0  0.10458129756E-02  0.31246330948E-01  0.31388937423E+01  0.31390653629E+01  0.10000000000E-01 0.  1.
      611    1    3    3    0    0  0.13190608060E-03 -0.21819881766E-01  0.80749856116E+01  0.80750212849E+01  0.10000000000E-01 0. -1.
</event>
<event>
 7   0  0.6206631E-02  0.9118800E+02  0.7818608E-02  0.1180000E+00
       11   -1    0    0    0    0  0.00000000000E+00  0.00000000000E+00  0.11999999989E+02  0.12000000000E+02  0.51109989000E-03 0. -1.
     -623   -1    0    0    0    0  0.00000000000E+00  0.00000000000E+00  0.42561509872E-11  0.25126700000E+02  0.25126700000E+02 0. -1.
      622    2    1    2    0    0 -0.36359484261E-01 -0.29004921565E-01  0.11352210681E+02  0.11352855661E+02  0.11171853474E+00 0.  0.
       11    1    1    2    0    0  0.43769589329E-01  0.23250791819E-01  0.64524160096E+00  0.64714245812E+00  0.51109989000E-03 0. -1.
     -623    1    1    2    0    0 -0.74101050679E-02  0.57541297460E-02  0.25477076148E-02  0.25126701881E+02  0.25126700000E+02 0. -1.
     -611    1    3    3    0    0 -0.63093017945E-01  0.91493776819E-02  0.43022357318E+01  0.43027196902E+01  0.10000000000E-01 0.  1.
      611    1    3    3    0    0  0.26733533684E-01 -0.38154299247E-01  0.70499749487E+01  0.70501359710E+01  0.10000000000E-01 0. -1.
</event>
<event>
 7   0  0.6206631E-02  0.9118800E+02  0.7818608E-02  0.1180000E+00
       11   -1    0    0    0    0  0.00000000000E+00  0.00000000000E+00  0.11999999989E+02  0.12000000000E+02  0.51109989000E-03 0. -1.
     -623   -1    0    0    0    0  0.00000000000E+00  0.00000000000E+00  0.42561509872E-11  0.25126700000E+02  0.25126700000E+02 0.  1.
      622    2    1    2    0    0  0.98399569410E-02 -0.34108328040E-03  0.10755825080E+02  0.10756270480E+02  0.97388664678E-01 0.  0.
       11    1    1    2    0    0 -0.85952035581E-03 -0.94273604608E-02  0.12436898797E+01  0.12437260117E+01  0.51109989000E-03 0. -1.
     -623    1    1    2    0    0 -0.89804365852E-02  0.97684437412E-02  0.48502965052E-03  0.25126703508E+02  0.25126700000E+02 0.  1.
     -611    1    3    3    0    0 -0.15160086372E-01  0.38757661319E-01  0.72179303334E+01  0.72180572374E+01  0.10000000000E-01 0. -1.
      611    1    3    3    0    0  0.25000043313E-01 -0.39098744599E-01  0.35378947463E+01  0.35382132426E+01  0.10000000000E-01 0. -1.
</event>
<event>
 7   0  0.6206631E-02  0.9118800E+02  0.7818608E-02  0.1180000E+00
       11   -1    0    0    0    0  0.00000000000E+00  0.00000000000E+00  0.11999999989E+02  0.12000000000E+02  0.51109989000E-03 0.  1.
     -623   -1    0    0    0    0  0.00000000000E+00  0.00000000000E+00  0.42561509872E-11  0.25126700000E+02  0.25126700000E+02 0.  1.
      622    2    1    2    0    0 -0.32288833936E-01 -0.23805020096E-01  0.56975200414E+01  0.56986216341E+01  0.10461672210E+00 0.  0.
       11    1    1    2    0    0  0.30928119084E-01 -0.12075758646E+00  0.62997291200E+01  0.63009623225E+01  0.51109989000E-03 0.  1.
     -623    1    1    2    0    0  0.13607148522E-02  0.14456260655E+00  0.27508276745E-02  0.25127116043E+02  0.25126700000E+02 0.  1.
     -611    1    3    3    0    0 -0.29477045946E-01  0.38118304139E-01  0.24255275962E+01  0.24260267973E+01  0.10000000000E-01 0. -1.
      611    1    3    3    0    0 -0.28117879900E-02 -0.61923324235E-01  0.32719924452E+01  0.32725948368E+01  0.10000000000E-01 0.  1.
</event>
<event>
 7   0  0.6206631E-02  0.9118800E+02  0.7818608E-02  0.1180000E+00
       11   -1    0    0    0    0  0.00000000000E+00  0.00000000000E+00  0.11999999989E+02  0.12000000000E+02  0.51109989000E-03 0. -1.
     -623   -1    0    0    0    0  0.00000000000E+00  0.00000000000E+00  0.42561509872E-11  0.25126700000E+02  0.25126700000E+02 0. -1.
      622    2    1    2    0    0  0.53391625043E-03  0.15418350088E-01  0.11739834730E+02  0.11740158809E+02  0.85856647047E-01 0.  0.
       11    1    1    2    0    0 -0.15281803626E-01  0.10762567120E-01  0.25914951073E+00  0.25982320240E+00  0.51109989000E-03 0. -1.
     -623    1    1    2    0    0  0.14747887376E-01 -0.26180917207E-01  0.10157481388E-02  0.25126717988E+02  0.25126700000E+02 0. -1.
     -611    1    3    3    0    0  0.15974560962E-01 -0.46213692748E-02  0.10531629995E+02  0.10531647872E+02  0.10000000000E-01 0. -1.
      611    1    3    3    0    0 -0.15440644712E-01  0.20039719363E-01  0.12082047353E+01  0.12085109375E+01  0.10000000000E-01 0.  1.
</event>
<event>
 7   0  0.6206631E-02  0.9118800E+02  0.7818608E-02  0.1180000E+00
       11   -1    0    0    0    0  0.00000000000E+00  0.00000000000E+00  0.11999999989E+02  0.12000000000E+02  0.51109989000E-03 0. -1.
     -623   -1    0    0    0    0  0.00000000000E+00  0.00000000000E+00  0.42561509872E-11  0.25126700000E+02  0.25126700000E+02 0.  1.
      622    2    1    2    0    0  0.66094650599E-02  0.35060604648E-03  0.11719047338E+02  0.11719422779E+02  0.93573266595E-01 0.  0.
       11    1    1    2    0    0 -0.48917336394E-02 -0.47378878637E-02  0.28049365246E+00  0.28057677547E+00  0.51109989000E-03 0. -1.
     -623    1    1    2    0    0 -0.17177314205E-02  0.43872818172E-02  0.45899912466E-03  0.25126700446E+02  0.25126700000E+02 0.  1.
     -611    1    3    3    0    0 -0.97208363878E-03 -0.62086521846E-02  0.18999253261E+00  0.19035927810E+00  0.10000000000E-01 0. -1.
      611    1    3    3    0    0  0.75815486986E-02  0.65592582311E-02  0.11529054805E+02  0.11529063501E+02  0.10000000000E-01 0. -1.
</event>
<event>
 7   0  0.6206631E-02  0.9118800E+02  0.7818608E-02  0.1180000E+00
       11   -1    0    0    0    0  0.00000000000E+00  0.00000000000E+00  0.11999999989E+02  0.12000000000E+02  0.51109989000E-03 0. -1.
     -623   -1    0    0    0    0  0.00000000000E+00  0.00000000000E+00  0.42561509872E-11  0.25126700000E+02  0.25126700000E+02 0. -1.
      622    2    1    2    0    0 -0.11647709225E-01 -0.11859724293E-01  0.10094434905E+02  0.10094866415E+02  0.91845241385E-01 0.  0.
       11    1    1    2    0    0  0.11566503727E-01  0.14705321591E-01  0.19050414828E+01  0.19051334186E+01  0.51109989000E-03 0. -1.
     -623    1    1    2    0    0  0.81205497476E-04 -0.28455972981E-02  0.52360096487E-03  0.25126700167E+02  0.25126700000E+02 0. -1.
     -611    1    3    3    0    0 -0.50657336987E-01 -0.83526734944E-02  0.51151591908E+01  0.51154266176E+01  0.10000000000E-01 0. -1.
      611    1    3    3    0    0  0.39009627762E-01 -0.35070507984E-02  0.49792757146E+01  0.49794397971E+01  0.10000000000E-01 0.  1.
</event>
<event>
 7   0  0.6206631E-02  0.9118800E+02  0.7818608E-02  0.1180000E+00
       11   -1    0    0    0    0  0.00000000000E+00  0.00000000000E+00  0.11999999989E+02  0.12000000000E+02  0.51109989000E-03 0.  1.
     -623   -1    0    0    0    0  0.00000000000E+00  0.00000000000E+00  0.42561509872E-11  0.25126700000E+02  0.25126700000E+02 0.  1.
      622    2    1    2    0    0 -0.56905066673E-01 -0.78355871577E-01  0.82206573330E+01  0.82216296798E+01  0.81300534561E-01 0.  0.
       11    1    1    2    0    0  0.13388034430E-03  0.10290182835E+00  0.37768925148E+01  0.37782940772E+01  0.51109989000E-03 0.  1.
     -623    1    1    2    0    0  0.56771186329E-01 -0.24545956776E-01  0.24501413561E-02  0.25126776243E+02  0.25126700000E+02 0.  1.
     -611    1    3    3    0    0  0.16217535156E-01 -0.11007575552E-01  0.80992174254E+00  0.81022058984E+00  0.10000000000E-01 0. -1.
      611    1    3    3    0    0 -0.73122601830E-01 -0.67348296026E-01  0.74107355904E+01  0.74114090900E+01  0.10000000000E-01 0.  1.
</event>
<event>
 7   0  0.6206631E-02  0.9118800E+02  0.7818608E-02  0.1180000E+00
       11   -1    0    0    0    0  0.00000000000E+00  0.00000000000E+00  0.11999999989E+02  0.12000000000E+02  0.51109989000E-03 0. -1.
     -623   -1    0    0    0    0  0.00000000000E+00  0.00000000000E+00  0.42561509872E-11  0.25126700000E+02  0.25126700000E+02 0. -1.
      622    2    1    2    0    0 -0.31699159812E-03 -0.70342746324E-03  0.11995954107E+02  0.11996354702E+02  0.98033651691E-01 0.  0.
       11    1    1    2    0    0  0.43585243152E-03 -0.23819944073E-03  0.35749272930E-02  0.36452756533E-02  0.51109989000E-03 0. -1.
     -623    1    1    2    0    0 -0.11886083340E-03  0.94162690396E-03  0.47095453580E-03  0.25126700022E+02  0.25126700000E+02 0. -1.
     -611    1    3    3    0    0 -0.89071756620E-02  0.15645902775E-02  0.11768423063E+02  0.11768430787E+02  0.10000000000E-01 0. -1.
      611    1    3    3    0    0  0.85901840639E-02 -0.22680177408E-02  0.22753104394E+00  0.22792391520E+00  0.10000000000E-01 0. -1.
</event>
<event>
 7   0  0.6206631E-02  0.9118800E+02  0.7818608E-02  0.1180000E+00
       11   -1    0    0    0    0  0.00000000000E+00  0.00000000000E+00  0.11999999989E+02  0.12000000000E+02  0.51109989000E-03 0. -1.
     -623   -1    0    0    0    0  0.00000000000E+00  0.00000000000E+00  0.42561509872E-11  0.25126700000E+02  0.25126700000E+02 0.  1.
      622    2    1    2    0    0  0.78470468547E-03  0.88692097185E-03  0.11975450757E+02  0.11975969540E+02  0.11146376607E+00 0.  0.
       11    1    1    2    0    0 -0.64789728943E-03  0.33041284973E-03  0.24013978262E-01  0.24030424854E-01  0.51109989000E-03 0. -1.
     -623    1    1    2    0    0 -0.13680739604E-03 -0.12173338216E-02  0.53525359984E-03  0.25126700036E+02  0.25126700000E+02 0.  1.
     -611    1    3    3    0    0  0.50257825116E-01  0.12421123089E-01  0.81195377593E+01  0.81197089577E+01  0.10000000000E-01 0. -1.
      611    1    3    3    0    0 -0.49473120430E-01 -0.11534202117E-01  0.38559129980E+01  0.38562605819E+01  0.10000000000E-01 0.  1.
</event>
<event>
 6   0  0.6206631E-02  0.9118800E+02  0.7818608E-02  0.1180000E+00
       11   -1    0    0    0    0  0.00000000000E+00  0.00000000000E+00  0.11999999989E+02  0.12000000000E+02  0.51109989000E-03 0. -1.
     -623   -1    0    0    0    0  0.00000000000E+00  0.00000000000E+00  0.42561509872E-11  0.25126700000E+02  0.25126700000E+02 0. -1.
       11    1    1    2    0    0  0.11246319438E-01  0.50211393188E-02  0.24214187896E-01  0.27171302132E-01  0.51109989000E-03 0. -1.
     -623    1    1    2    0    0 -0.63985989614E-02 -0.33010072313E-01  0.83212097312E-02  0.25126723876E+02  0.25126700000E+02 0. -1.
     -611    1    1    2    0    0  0.79096664415E-01 -0.14046641834E+00  0.43207441818E+01  0.43237619478E+01  0.10000000000E-01 0.  1.
      611    1    1    2    0    0 -0.83944384892E-01  0.16845535133E+00  0.76467204097E+01  0.76490428741E+01  0.10000000000E-01 0. -1.
</event>
<event>
 7   0  0.6206631E-02  0.9118800E+02  0.7818608E-02  0.1180000E+00
       11   -1    0    0    0    0  0.00000000000E+00  0.00000000000E+00  0.11999999989E+02  0.12000000000E+02  0.51109989000E-03 0.  1.
     -623   -1    0    0    0    0  0.00000000000E+00  0.00000000000E+00  0.42561509872E-11  0.25126700000E+02  0.25126700000E+02 0. -1.
      622    2    1    2    0    0  0.29108254914E-02  0.30620403809E-03  0.11959436272E+02  0.11959763226E+02  0.88384900044E-01 0.  0.
       11    1    1    2    0    0 -0.28407517463E-02  0.16727244537E-03  0.40132758181E-01  0.40236766183E-01  0.51109989000E-03 0.  1.
     -623    1    1    2    0    0 -0.70073745103E-04 -0.47347648346E-03  0.43095851021E-03  0.25126700008E+02  0.25126700000E+02 0. -1.
     -611    1    3    3    0    0  0.75559794186E-03  0.38061706615E-01  0.87508455886E+01  0.87509341090E+01  0.10000000000E-01 0.  1.
      611    1    3    3    0    0  0.21552275495E-02 -0.37755502577E-01  0.32085906838E+01  0.32088291165E+01  0.10000000000E-01 0. -1.
</event>
<event>
 7   0  0.6206631E-02  0.9118800E+02  0.7818608E-02  0.1180000E+00
       11   -1    0    0    0    0  0.00000000000E+00  0.00000000000E+00  0.11999999989E+02  0.12000000000E+02  0.51109989000E-03 0.  1.
     -623   -1    0    0    0    0  0.00000000000E+00  0.00000000000E+00  0.42561509872E-11  0.25126700000E+02  0.25126700000E+02 0. -1.
      622    2    1    2    0    0  0.25984453001E-02  0.11744055800E-02  0.11959013203E+02  0.11959377501E+02  0.93302117016E-01 0.  0.
       11    1    1    2    0    0 -0.16414830880E-02  0.44610541862E-03  0.40583577561E-01  0.40622425673E-01  0.51109989000E-03 0.  1.
     -623    1    1    2    0    0 -0.95696221208E-03 -0.16205109986E-02  0.40320870787E-03  0.25126700074E+02  0.25126700000E+02 0. -1.
     -611    1    3    3    0    0 -0.12942668515E-01  0.41410511370E-01  0.41513753710E+01  0.41516141215E+01  0.10000000000E-01 0. -1.
      611    1    3    3    0    0  0.15541113815E-01 -0.40236105790E-01  0.78076378319E+01  0.78077633791E+01  0.10000000000E-01 0.  1.
</event>
<event>
 7   0  0.6206631E-02  0.9118800E+02  0.7818608E-02  0.1180000E+00
       11   -1    0    0    0    0  0.00000000000E+00  0.00000000000E+00  0.11999999989E+02  0.12000000000E+02  0.51109989000E-03 0.  1.
     -623   -1    0    0    0    0  0.00000000000E+00  0.00000000000E+00  0.42561509872E-11  0.25126700000E+02  0.25126700000E+02 0.  1.
      622    2    1    2    0    0  0.57008556470E-04  0.30615504255E-02  0.11986969406E+02  0.11987052389E+02  0.44497846198E-01 0.  0.
       11    1    1    2    0    0  0.64849612887E-03 -0.31907266615E-02  0.12521091011E-01  0.12947595418E-01  0.51109989000E-03 0.  1.
     -623    1    1    2    0    0 -0.70550468534E-03  0.12917623591E-03  0.50949186191E-03  0.25126700015E+02  0.25126700000E+02 0.  1.
     -611    1    3    3    0    0  0.72640989547E-02  0.37761170171E-02  0.10990801436E+01  0.10991561255E+01  0.10000000000E-01 0.  1.
      611    1    3    3    0    0 -0.72070903982E-02 -0.71456659156E-03  0.10887889263E+02  0.10887896264E+02  0.10000000000E-01 0.  1.
</event>
<event>
 7   0  0.6206631E-02  0.9118800E+02  0.7818608E-02  0.1180000E+00
       11   -1    0    0    0    0  0.00000000000E+00  0.00000000000E+00  0.11999999989E+02  0.12000000000E+02  0.51109989000E-03 0. -1.
     -623   -1    0    0    0    0  0.00000000000E+00  0.00000000000E+00  0.42561509872E-11  0.25126700000E+02  0.25126700000E+02 0. -1.
      622    2    1    2    0    0  0.22516532704E-01  0.65589079933E-02  0.11420428340E+02  0.11420957806E+02  0.10744168380E+00 0.  0.
       11    1    1    2    0    0 -0.89628468454E-02 -0.21988047381E-01  0.57854649836E+00  0.57903378039E+00  0.51109989000E-03 0. -1.
     -623    1    1    2    0    0 -0.13553685858E-01  0.15429139388E-01  0.10251503787E-02  0.25126708414E+02  0.25126700000E+02 0. -1.
     -611    1    3    3    0    0  0.53944246822E-01  0.17357843174E-01  0.97460317724E+01  0.97462016491E+01  0.10000000000E-01 0. -1.
      611    1    3    3    0    0 -0.31427714118E-01 -0.10798935181E-01  0.16743965680E+01  0.16747561569E+01  0.10000000000E-01 0. -1.
</event>
<event>
 7   0  0.6206631E-02  0.9118800E+02  0.7818608E-02  0.1180000E+00
       11   -1    0    0    0    0  0.00000000000E+00  0.00000000000E+00  0.11999999989E+02  0.12000000000E+02  0.51109989000E-03 0. -1.
     -623   -1    0    0    0    0  0.00000000000E+00  0.00000000000E+00  0.42561509872E-11  0.25126700000E+02  0.25126700000E+02 0.  1.
      622    2    1    2    0    0  0.73533868715E-02 -0.81953668905E-02  0.11910019213E+02  0.11910389424E+02  0.93259560196E-01 0.  0.
       11    1    1    2    0    0 -0.36135058585E-02  0.14116320079E-02  0.89523903030E-01  0.89609377669E-01  0.51109989000E-03 0. -1.
     -623    1    1    2    0    0 -0.37398810129E-02  0.67837348826E-02  0.45687317047E-03  0.25126701198E+02  0.25126700000E+02 0.  1.
     -611    1    3    3    0    0  0.11974897955E-02  0.62802527490E-02  0.19802720565E+00  0.19838258425E+00  0.10000000000E-01 0. -1.
      611    1    3    3    0    0  0.61558970760E-02 -0.14475619640E-01  0.11711992007E+02  0.11712006840E+02  0.10000000000E-01 0. -1.
</event>
<event>
 7   0  0.6206631E-02  0.9118800E+02  0.7818608E-02  0.1180000E+00
       11   -1    0    0    0    0  0.00000000000E+00  0.00000000000E+00  0.11999999989E+02  0.12000000000E+02  0.51109989000E-03 0. -1.
     -623   -1    0    0    0    0  0.00000000000E+00  0.00000000000E+00  0.42561509872E-11  0.25126700000E+02  0.25126700000E+02 0. -1.
      622    2    1    2    0    0 -0.38010175719E-01 -0.85716436552E-01  0.26603489792E+01  0.26639843074E+01  0.10277946423E+00 0.  0.
       11    1    1    2    0    0  0.32626131130E-01  0.61743060113E-01  0.93357421821E+01  0.93360033752E+01  0.51109989000E-03 0. -1.
     -623    1    1    2    0    0  0.53840445894E-02  0.23973376439E-01  0.39088278388E-02  0.25126712317E+02  0.25126700000E+02 0. -1.
     -611    1    3    3    0    0 -0.42487292647E-01 -0.10466358973E+00  0.19469902075E+01  0.19502898516E+01  0.10000000000E-01 0. -1.
      611    1    3    3    0    0  0.44771169277E-02  0.18947153179E-01  0.71335877166E+00  0.71369445584E+00  0.10000000000E-01 0.  1.
</event>
<event>
 7   0  0.6206631E-02  0.9118800E+02  0.7818608E-02  0.1180000E+00
       11   -1    0    0    0    0  0.00000000000E+00  0.00000000000E+00  0.11999999989E+02  0.12000000000E+02  0.51109989000E-03 0.  1.
     -623   -1    0    0    0    0  0.00000000000E+00  0.00000000000E+00  0.42561509872E-11  0.25126700000E+02  0.25126700000E+02 0. -1.
      622    2    1    2    0    0 -0.31508639426E-01 -0.40694887188E-02  0.11680213605E+02  0.11680598719E+02  0.89371245936E-01 0.  0.
       11    1    1    2    0    0  0.26067253925E-01  0.88817119444E-02  0.31821035200E+00  0.31940018140E+00  0.51109989000E-03 0.  1.
     -623    1    1    2    0    0  0.54413855009E-02 -0.48122232256E-02  0.15760318968E-02  0.25126701099E+02  0.25126700000E+02 0. -1.
     -611    1    3    3    0    0 -0.51876455705E-02 -0.43177354368E-01  0.68285531999E+01  0.68286989975E+01  0.10000000000E-01 0.  1.
      611    1    3    3    0    0 -0.26320993856E-01  0.39107865650E-01  0.48516604053E+01  0.48518997216E+01  0.10000000000E-01 0. -1.
</event>
<event>
 7   0  0.6206631E-02  0.9118800E+02  0.7818608E-02  0.1180000E+00
       11   -1    0    0    0    0  0.00000000000E+00  0.00000000000E+00  0.11999999989E+02  0.12000000000E+02  0.51109989000E-03 0.  1.
     -623   -1    0    0    0    0  0.00000000000E+00  0.00000000000E+00  0.42561509872E-11  0.25126700000E+02  0.25126700000E+02 0.  1.
      622    2    1    2    0    0 -0.21155489410E-01  0.51089021614E-02  0.10850876983E+02  0.10850969187E+02  0.39081227503E-01 0.  0.
       11    1    1    2    0    0  0.22199270921E-01 -0.26494458860E-02  0.11488130352E+01  0.11490306689E+01  0.51109989000E-03 0.  1.
     -623    1    1    2    0    0 -0.10437815113E-02 -0.24594562753E-02  0.30997090520E-03  0.25126700144E+02  0.25126700000E+02 0.  1.
     -611    1    3    3    0    0  0.77766015439E-02  0.30144268621E-02  0.43949622101E+01  0.43949815005E+01  0.10000000000E-01 0.  1.
      611    1    3    3    0    0 -0.28932090954E-01  0.20944752993E-02  0.64559147731E+01  0.64559876866E+01  0.10000000000E-01 0. -1.
</event>
<event>
 6   0  0.6206631E-02  0.9118800E+02  0.7818608E-02  0.1180000E+00
       11   -1    0    0    0    0  0.00000000000E+00  0.00000000000E+00  0.11999999989E+02  0.12000000000E+02  0.51109989000E-03 0. -1.
     -623   -1    0    0    0    0  0.00000000000E+00  0.00000000000E+00  0.42561509872E-11  0.25126700000E+02  0.25126700000E+02 0.  1.
       11    1    1    2    0    0 -0.65030380350E-01 -0.44094740492E-01  0.65142561489E+01  0.65147299814E+01  0.51109989000E-03 0. -1.
     -623    1    1    2    0    0 -0.16856112553E-01  0.88108048488E-02  0.48731691780E-02  0.25126707671E+02  0.25126700000E+02 0.  1.
     -611    1    1    2    0    0 -0.21442821612E-02 -0.62648879049E-01  0.32635944062E+01  0.32642116856E+01  0.10000000000E-01 0. -1.
      611    1    1    2    0    0  0.84030775064E-01  0.97932814693E-01  0.22172762648E+01  0.22210506617E+01  0.10000000000E-01 0.  1.
</event>
<event>
 7   0  0.6206631E-02  0.9118800E+02  0.7818608E-02  0.1180000E+00
       11   -1    0    0    0    0  0.00000000000E+00  0.00000000000E+00  0.11999999989E+02  0.12000000000E+02  0.51109989000E-03 0.  1.
     -623   -1    0    0    0    0  0.00000000000E+00  0.00000000000E+00  0.42561509872E-11  0.25126700000E+02  0.25126700000E+02 0. -1.
      622    2    1    2    0    0 -0.20984678668E-04 -0.39360890361E-02  0.11961956109E+02  0.11962446808E+02  0.10827829318E+00 0.  0.
       11    1    1    2    0    0  0.13353515169E-02  0.32854288136E-02  0.37381812647E-01  0.37553140295E-01  0.51109989000E-03 0.  1.
     -623    1    1    2    0    0 -0.13143668382E-02  0.65066022247E-03  0.66206735183E-03  0.25126700052E+02  0.25126700000E+02 0. -1.
     -611    1    3    3    0    0 -0.13409921225E-01  0.29571384736E-01  0.13591088924E+01  0.13595334766E+01  0.10000000000E-01 0. -1.
      611    1    3    3    0    0  0.13388936547E-01 -0.33507473772E-01  0.10602847217E+02  0.10602913332E+02  0.10000000000E-01 0.  1.
</event>
<event>
 7   0  0.6206631E-02  0.9118800E+02  0.7818608E-02  0.1180000E+00
       11   -1    0    0    0    0  0.00000000000E+00  0.00000000000E+00  0.11999999989E+02  0.12000000000E+02  0.51109989000E-03 0.  1.
     -623   -1    0    0    0    0  0.00000000000E+00  0.00000000000E+00  0.42561509872E-11  0.25126700000E+02  0.25126700000E+02 0.  1.
      622    2    1    2    0    0 -0.41384117483E-02  0.13428267428E-02  0.11955875713E+02  0.11956123189E+02  0.76803124246E-01 0.  0.
       11    1    1    2    0    0  0.21310951826E-03 -0.15381787784E-02  0.43846035372E-01  0.43876502260E-01  0.51109989000E-03 0.  1.
     -623    1    1    2    0    0  0.39253022300E-02  0.19535203561E-03  0.27824106838E-03  0.25126700309E+02  0.25126700000E+02 0.  1.
     -611    1    3    3    0    0 -0.31017815288E-01  0.40775902226E-02  0.26589860547E+01  0.26591888933E+01  0.10000000000E-01 0. -1.
      611    1    3    3    0    0  0.26879403539E-01 -0.27347634798E-02  0.92968896580E+01  0.92969342955E+01  0.10000000000E-01 0.  1.
</event>
<event>
 7   0  0.6206631E-02  0.9118800E+02  0.7818608E-02  0.1180000E+00
       11   -1    0    0    0    0  0.00000000000E+00  0.00000000000E+00  0.11999999989E+02  0.12000000000E+02  0.51109989000E-03 0.  1.
     -623   -1    0    0    0    0  0.00000000000E+00  0.00000000000E+00  0.42561509872E-11  0.25126700000E+02  0.25126700000E+02 0.  1.
      622    2    1    2    0    0  0.12925739821E-03 -0.91376709646E-02  0.11941011061E+02  0.11941813275E+02  0.13811447154E+00 0.  0.
       11    1    1    2    0    0 -0.23610347815E-02  0.91587877877E-02  0.57410439676E-01  0.58186576510E-01  0.51109989000E-03 0.  1.
     -623    1    1    2    0    0  0.22317773833E-02 -0.21116823087E-04  0.15784880278E-02  0.25126700149E+02  0.25126700000E+02 0.  1.
     -611    1    3    3    0    0 -0.44384764019E-01  0.70325593036E-02  0.15363416766E+01  0.15370312981E+01  0.10000000000E-01 0. -1.
      611    1    3    3    0    0  0.44514021417E-01 -0.16170230268E-01  0.10404669385E+02  0.10404781977E+02  0.10000000000E-01 0.  1.
</event>
<event>
 7   0  0.6206631E-02  0.9118800E+02  0.7818608E-02  0.1180000E+00
       11   -1    0    0    0    0  0.00000000000E+00  0.00000000000E+00  0.11999999989E+02  0.12000000000E+02  0.51109989000E-03 0.  1.
     -623   -1    0    0    0    0  0.00000000000E+00  0.00000000000E+00  0.42561509872E-11  0.25126700000E+02  0.25126700000E+02 0.  1.
      622    2    1    2    0    0  0.10756824908E-01  0.17812099295E-02  0.10910357261E+02  0.10910891135E+02  0.10738210839E+00 0.  0.
       11    1    1    2    0    0  0.88328561485E-02 -0.75258979659E-02  0.10890386222E+01  0.10891005649E+01  0.51109989000E-03 0.  1.
     -623    1    1    2    0    0 -0.19589681056E-01  0.57446880364E-02  0.60410623392E-03  0.25126708300E+02  0.25126700000E+02 0.  1.
     -611    1    3    3    0    0 -0.18253797461E-01  0.29533627754E-01  0.14725669397E+01  0.14730101250E+01  0.10000000000E-01 0. -1.
      611    1    3    3    0    0  0.29010622369E-01 -0.27752417825E-01  0.94377903209E+01  0.94378810098E+01  0.10000000000E-01 0.  1.
</event>
<event>
 7   0  0.6206631E-02  0.9118800E+02  0.7818608E-02  0.1180000E+00
       11   -1    0    0    0    0  0.00000000000E+00  0.00000000000E+00  0.11999999989E+02  0.12000000000E+02  0.51109989000E-03 0.  1.
     -623   -1    0    0    0    0  0.00000000000E+00  0.00000000000E+00  0.42561509872E-11  0.25126700000E+02  0.25126700000E+02 0. -1.
      622    2    1    2    0    0 -0.91375592820E-02 -0.17622116762E-01  0.10895575900E+02  0.10896204097E+02  0.11530606871E+00 0.  0.
       11    1    1    2    0    0 -0.87335861120E-02 -0.59736129392E-01  0.11020178311E+01  0.11036703502E+01  0.51109989000E-03 0.  1.
     -623    1    1    2    0    0  0.17871145394E-01  0.77358246154E-01  0.24062576149E-02  0.25126825553E+02  0.25126700000E+02 0. -1.
     -611    1    3    3    0    0  0.76642906062E-02  0.35164750413E-01  0.15189544386E+01  0.15194136657E+01  0.10000000000E-01 0. -1.
      611    1    3    3    0    0 -0.16801849888E-01 -0.52786867176E-01  0.93766214618E+01  0.93767904313E+01  0.10000000000E-01 0.  1.
</event>
<event>
 7   0  0.6206631E-02  0.9118800E+02  0.7818608E-02  0.1180000E+00
       11   -1    0    0    0    0  0.00000000000E+00  0.00000000000E+00  0.11999999989E+02  0.12000000000E+02  0.51109989000E-03 0.  1.
     -623   -1    0    0    0    0  0.00000000000E+00  0.00000000000E+00  0.42561509872E-11  0.25126700000E+02  0.25126700000E+02 0.  1.
      622    2    1    2    0    0  0.89905650333E-02 -0.14596618630E-01  0.11701586197E+02  0.11702038452E+02  0.10144209207E+00 0.  0.
       11    1    1    2    0    0 -0.11330232127E-01  0.11372023777E-01  0.29752802969E+00  0.29796121687E+00  0.51109989000E-03 0.  1.
     -623    1    1    2    0    0  0.23396670941E-02  0.32245948530E-02  0.88576204064E-03  0.25126700331E+02  0.25126700000E+02 0.  1.
     -611    1    3    3    0    0  0.27301062914E-01 -0.22857148382E-01  0.11056919439E+02  0.11056981291E+02  0.10000000000E-01 0.  1.
      611    1    3    3    0    0 -0.18310497881E-01  0.82605297519E-02  0.64466675827E+00  0.64505716018E+00  0.10000000000E-01 0.  1.
</event>
<event>
 7   0  0.6206631E-02  0.9118800E+02  0.7818608E-02  0.1180000E+00
       11   -1    0    0    0    0  0.00000000000E+00  0.00000000000E+00  0.11999999989E+02  0.12000000000E+02  0.51109989000E-03 0. -1.
     -623   -1    0    0    0    0  0.00000000000E+00  0.00000000000E+00  0.42561509872E-11  0.25126700000E+02  0.25126700000E+02 0.  1.
      622    2    1    2    0    0  0.99331801722E-02 -0.47488575663E-02  0.11180804027E+02  0.11181204112E+02  0.93944089468E-01 0.  0.
       11    1    1    2    0    0 -0.10253702704E-01  0.26475768207E-02  0.81872714749E+00  0.81879579343E+00  0.51109989000E-03 0. -1.
     -623    1    1    2    0    0  0.32052253169E-03  0.21012807455E-02  0.46881468396E-03  0.25126700094E+02  0.25126700000E+02 0.  1.
     -611    1    3    3    0    0 -0.40414214593E-01  0.43130263003E-02  0.56157681700E+01  0.56159241492E+01  0.10000000000E-01 0. -1.
      611    1    3    3    0    0  0.50347394765E-01 -0.90618838665E-02  0.55650358569E+01  0.55652799630E+01  0.10000000000E-01 0.  1.
</event>
<event>
 7   0  0.6206631E-02  0.9118800E+02  0.7818608E-02  0.1180000E+00
       11   -1    0    0    0    0  0.00000000000E+00  0.00000000000E+00  0.11999999989E+02  0.12000000000E+02  0.51109989000E-03 0. -1.
     -623   -1    0    0    0    0  0.00000000000E+00  0.00000000000E+00  0.42561509872E-11  0.25126700000E+02  0.25126700000E+02 0.  1.
      622    2    1    2    0    0 -0.10902541783E+00  0.86848338008E-02  0.11719683677E+02  0.11720563160E+02  0.93023269761E-01 0.  0.
       11    1    1    2    0    0  0.81662757565E-01 -0.70341595684E-03  0.26721609684E+00  0.27941725860E+00  0.51109989000E-03 0. -1.
     -623    1    1    2    0    0  0.27362660265E-01 -0.79814178439E-02  0.13100215227E-01  0.25126719581E+02  0.25126700000E+02 0.  1.
     -611    1    3    3    0    0 -0.10953459138E+00 -0.20565585203E-01  0.86475193328E+01  0.86482432541E+01  0.10000000000E-01 0. -1.
      611    1    3    3    0    0  0.50917355074E-03  0.29250419004E-01  0.30721643442E+01  0.30723199059E+01  0.10000000000E-01 0.  1.
</event>
<event>
 7   0  0.6206631E-02  0.9118800E+02  0.7818608E-02  0.1180000E+00
       11   -1    0    0    0    0  0.00000000000E+00  0.00000000000E+00  0.11999999989E+02  0.12000000000E+02  0.51109989000E-03 0. -1.
     -623   -1    0    0    0    0  0.00000000000E+00  0.00000000000E+00  0.42561509872E-11  0.25126700000E+02  0.25126700000E+02 0.  1.
      622    2    1    2    0    0  0.35085989225E-02 -0.76162239206E-02  0.11965044119E+02  0.11965472736E+02  0.10092924782E+00 0.  0.
       11    1    1    2    0    0 -0.88511264136E-02 -0.70671533227E-02  0.32607370545E-01  0.34522296155E-01  0.51109989000E-03 0. -1.
     -623    1    1    2    0    0  0.53425274911E-02  0.14683377243E-01  0.23484999055E-02  0.25126704968E+02  0.25126700000E+02 0.  1.
     -611    1    3    3    0    0  0.26991604442E-01  0.14987875329E-01  0.14094839513E+01  0.14098575077E+01  0.10000000000E-01 0.  1.
      611    1    3    3    0    0 -0.23483005520E-01 -0.22604099249E-01  0.10555560167E+02  0.10555615228E+02  0.10000000000E-01 0. -1.
</event>
<event>
 7   0  0.6206631E-02  0.9118800E+02  0.7818608E-02  0.1180000E+00
       11   -1    0    0    0    0  0.00000000000E+00  0.00000000000E+00  0.11999999989E+02  0.12000000000E+02  0.51109989000E-03 0.  1.
     -623   -1    0    0    0    0  0.00000000000E+00  0.00000000000E+00  0.42561509872E-11  0.25126700000E+02  0.25126700000E+02 0. -1.
      622    2    1    2    0    0  0.43699429983E-02  0.65989895161E-04  0.11987718708E+02  0.11988189736E+02  0.10618023178E+00 0.  0.
       11    1    1    2    0    0 -0.10920529062E-03  0.10106421260E-02  0.11754938248E-01  0.11809873820E-01  0.51109989000E-03 0.  1.
     -623    1    1    2    0    0 -0.42607377077E-02 -0.10766320211E-02  0.52634327569E-03  0.25126700390E+02  0.25126700000E+02 0. -1.
     -611    1    3    3    0    0 -0.23373104041E-01 -0.29316799379E-01  0.97893143383E+01  0.97893912472E+01  0.10000000000E-01 0.  1.
      611    1    3    3    0    0  0.27743047040E-01  0.29382789274E-01  0.21984043693E+01  0.21987984892E+01  0.10000000000E-01 0. -1.
</event>
<event>
 7   0  0.6206631E-02  0.9118800E+02  0.7818608E-02  0.1180000E+00
       11   -1    0    0    0    0  0.00000000000E+00  0.00000000000E+00  0.11999999989E+02  0.12000000000E+02  0.51109989000E-03 0.  1.
     -623   -1    0    0    0    0  0.00000000000E+00  0.00000000000E+00  0.42561509872E-11  0.25126700000E+02  0.25126700000E+02 0.  1.
      622    2    1    2    0    0 -0.10180464359E-01 -0.68457333289E-02  0.11955168183E+02  0.11955390259E+02  0.71829478403E-01 0.  0.
       11    1    1    2    0    0  0.83965706722E-02 -0.23438575137E-02  0.43744873921E-01  0.44607973330E-01  0.51109989000E-03 0.  1.
     -623    1    1    2    0    0  0.17838936870E-02  0.91895908426E-02  0.10869326002E-02  0.25126701767E+02  0.25126700000E+02 0.  1.
     -611    1    3    3    0    0 -0.19810344368E-02 -0.19050189072E-02  0.11514532563E+02  0.11514537234E+02  0.10000000000E-01 0.  1.
      611    1    3    3    0    0 -0.81994299223E-02 -0.49407144217E-02  0.44063561916E+00  0.44085302560E+00  0.10000000000E-01 0.  1.
</event>
<event>
 7   0  0.6206631E-02  0.9118800E+02  0.7818608E-02  0.1180000E+00
       11   -1    0    0    0    0  0.00000000000E+00  0.00000000000E+00  0.11999999989E+02  0.12000000000E+02  0.51109989000E-03 0.  1.
     -623   -1    0    0    0    0  0.00000000000E+00  0.00000000000E+00  0.42561509872E-11  0.25126700000E+02  0.25126700000E+02 0. -1.
      622    2    1    2    0    0  0.52756547396E-01  0.60482172784E-01  0.92933715318E+01  0.92943565324E+01  0.10893841129E+00 0.  0.
       11    1    1    2    0    0 -0.53603735422E-01 -0.63256618877E-01  0.27043724037E+01  0.27056431988E+01  0.51109989000E-03 0.  1.
     -623    1    1    2    0    0  0.84718802546E-03  0.27744460930E-02  0.22560536301E-02  0.25126700269E+02  0.25126700000E+02 0. -1.
     -611    1    3    3    0    0  0.18435860750E-01  0.82199204601E-01  0.44789556372E+01  0.44797589434E+01  0.10000000000E-01 0. -1.
      611    1    3    3    0    0  0.34320686646E-01 -0.21717031817E-01  0.48144158945E+01  0.48145975891E+01  0.10000000000E-01 0.  1.
</event>
<event>
 7   0  0.6206631E-02  0.9118800E+02  0.7818608E-02  0.1180000E+00
       11   -1    0    0    0    0  0.00000000000E+00  0.00000000000E+00  0.11999999989E+02  0.12000000000E+02  0.51109989000E-03 0. -1.
     -623   -1    0    0    0    0  0.00000000000E+00  0.00000000000E+00  0.42561509872E-11  0.25126700000E+02  0.25126700000E+02 0.  1.
      622    2    1    2    0    0  0.26356352529E-02 -0.85432628767E-02  0.11219654483E+02  0.11220091321E+02  0.98603226197E-01 0.  0.
       11    1    1    2    0    0 -0.84238378704E-03  0.92684544702E-02  0.77985290192E+00  0.77990859959E+00  0.51109989000E-03 0. -1.
     -623    1    1    2    0    0 -0.17932514659E-02 -0.72519159344E-03  0.49260391659E-03  0.25126700079E+02  0.25126700000E+02 0.  1.
     -611    1    3    3    0    0 -0.12262886287E-01  0.41870438025E-01  0.44378531330E+01  0.44380788571E+01  0.10000000000E-01 0.  1.
      611    1    3    3    0    0  0.14898521540E-01 -0.50413700902E-01  0.67818013503E+01  0.67820124640E+01  0.10000000000E-01 0. -1.
</event>
<event>
 7   0  0.6206631E-02  0.9118800E+02  0.7818608E-02  0.1180000E+00
       11   -1    0    0    0    0  0.00000000000E+00  0.00000000000E+00  0.11999999989E+02  0.12000000000E+02  0.51109989000E-03 0. -1.
     -623   -1    0    0    0    0  0.00000000000E+00  0.00000000000E+00  0.42561509872E-11  0.25126700000E+02  0.25126700000E+02 0. -1.
      622    2    1    2    0    0 -0.72786581638E-02 -0.19683136086E-01  0.92059159681E+01  0.92065576632E+01  0.10665265755E+00 0.  0.
       11    1    1    2    0    0 -0.10864574524E-01  0.17217948500E-01  0.27933614162E+01  0.27934356552E+01  0.51109989000E-03 0. -1.
     -623    1    1    2    0    0  0.18143232688E-01  0.24651875860E-02  0.72260482943E-03  0.25126706682E+02  0.25126700000E+02 0. -1.
     -611    1    3    3    0    0 -0.36694104592E-01 -0.19288862013E-01  0.82990574180E+01  0.82991669790E+01  0.10000000000E-01 0. -1.
      611    1    3    3    0    0  0.29415446428E-01 -0.39427407323E-03  0.90685855003E+00  0.90739068416E+00  0.10000000000E-01 0.  1.
</event>
<event>
 7   0  0.6206631E-02  0.9118800E+02  0.7818608E-02  0.1180000E+00
       11   -1    0    0    0    0  0.00000000000E+00  0.00000000000E+00  0.11999999989E+02  0.12000000000E+02  0.51109989000E-03 0.  1.
     -623   -1    0    0    0    0  0.00000000000E+00  0.00000000000E+00  0.42561509872E-11  0.25126700000E+02  0.25126700000E+02 0.  1.
      622    2    1    2    0    0  0.17552359121E-03  0.65173855655E-02  0.11975165231E+02  0.11975529424E+02  0.93167485157E-01 0.  0.
       11    1    1    2    0    0 -0.15761583954E-01  0.89454753019E-02  0.16418297378E-01  0.24459574180E-01  0.51109989000E-03 0.  1.
     -623    1    1    2    0    0  0.15586060363E-01 -0.15462860867E-01  0.84164609115E-02  0.25126711001E+02  0.25126700000E+02 0.  1.
     -611    1    3    3    0    0  0.75526896411E-02 -0.39310947304E-01  0.37464229826E+01  0.37466501783E+01  0.10000000000E-01 0. -1.
      611    1    3    3    0    0 -0.73771660499E-02  0.45828332869E-01  0.82287422482E+01  0.82288792460E+01  0.10000000000E-01 0.  1.
</event>
<event>
 7   0  0.6206631E-02  0.9118800E+02  0.7818608E-02  0.1180000E+00
       11   -1    0    0    0    0  0.00000000000E+00  0.00000000000E+00  0.11999999989E+02  0.12000000000E+02  0.51109989000E-03 0. -1.
     -623   -1    0    0    0    0  0.00000000000E+00  0.00000000000E+00  0.42561509872E-11  0.25126700000E+02  0.25126700000E+02 0. -1.
      622    2    1    2    0    0 -0.58573948353E-02  0.34156724986E-02  0.11774595270E+02  0.11774949907E+02  0.91134856134E-01 0.  0.
       11    1    1    2    0    0  0.20036340265E-02 -0.46051589456E-02  0.22499314232E+00  0.22504976639E+00  0.51109989000E-03 0. -1.
     -623    1    1    2    0    0  0.38537608088E-02  0.11894864470E-02  0.41157715613E-03  0.25126700327E+02  0.25126700000E+02 0. -1.
     -611    1    3    3    0    0 -0.43887339981E-02 -0.42453122064E-01  0.50234987148E+01  0.50236899652E+01  0.10000000000E-01 0.  1.
      611    1    3    3    0    0 -0.14686608372E-02  0.45868794563E-01  0.67510965549E+01  0.67512599414E+01  0.10000000000E-01 0. -1.
</event>
<event>
 7   0  0.6206631E-02  0.9118800E+02  0.7818608E-02  0.1180000E+00
       11   -1    0    0    0    0  0.00000000000E+00  0.00000000000E+00  0.11999999989E+02  0.12000000000E+02  0.51109989000E-03 0. -1.
     -623   -1    0    0    0    0  0.00000000000E+00  0.00000000000E+00  0.42561509872E-11  0.25126700000E+02  0.25126700000E+02 0. -1.
      622    2    1    2    0    0 -0.58263325440E-01 -0.25594146145E-01  0.61313100525E+01  0.61330218499E+01  0.13017056155E+00 0.  0.
       11    1    1    2    0    0  0.61015626386E-01  0.34793092846E-01  0.58665557439E+01  0.58669762249E+01  0.51109989000E-03 0. -1.
     -623    1    1    2    0    0 -0.27523009460E-02 -0.91989467006E-02  0.21341926904E-02  0.25126701925E+02  0.25126700000E+02 0. -1.
     -611    1    3    3    0    0 -0.90036770639E-01  0.72514282539E-02  0.30407771267E+01  0.30421348980E+01  0.10000000000E-01 0. -1.
      611    1    3    3    0    0  0.31773445199E-01 -0.32845574399E-01  0.30905329258E+01  0.30908869518E+01  0.10000000000E-01 0.  1.
</event>
<event>
 7   0  0.6206631E-02  0.9118800E+02  0.7818608E-02  0.1180000E+00
       11   -1    0    0    0    0  0.00000000000E+00  0.00000000000E+00  0.11999999989E+02  0.12000000000E+02  0.51109989000E-03 0. -1.
     -623   -1    0    0    0    0  0.00000000000E+00  0.00000000000E+00  0.42561509872E-11  0.25126700000E+02  0.25126700000E+02 0.  1.
      622    2    1    2    0    0 -0.43649979593E-02 -0.28609910056E-02  0.11935342718E+02  0.11935535156E+02  0.67575251610E-01 0.  0.
       11    1    1    2    0    0  0.40593628782E-02  0.31684570947E-02  0.64256801277E-01  0.64464837554E-01  0.51109989000E-03 0. -1.
     -623    1    1    2    0    0  0.30563508104E-03 -0.30746608907E-03  0.40046987196E-03  0.25126700007E+02  0.25126700000E+02 0.  1.
     -611    1    3    3    0    0 -0.75757546293E-02 -0.59233309509E-02  0.11610461075E+02  0.11610469364E+02  0.10000000000E-01 0. -1.
      611    1    3    3    0    0  0.32107566700E-02  0.30623399453E-02  0.32488164282E+00  0.32506579138E+00  0.10000000000E-01 0. -1.
</event>
<event>
 7   0  0.6206631E-02  0.9118800E+02  0.7818608E-02  0.1180000E+00
       11   -1    0    0    0    0  0.00000000000E+00  0.00000000000E+00  0.11999999989E+02  0.12000000000E+02  0.51109989000E-03 0. -1.
     -623   -1    0    0    0    0  0.00000000000E+00  0.00000000000E+00  0.42561509872E-11  0.25126700000E+02  0.25126700000E+02 0. -1.
      622    2    1    2    0    0  0.72297234976E-02 -0.37068048895E-01  0.86561814627E+01  0.86568251714E+01  0.98581054559E-01 0.  0.
       11    1    1    2    0    0 -0.88682652788E-03  0.58584112158E-01  0.33426512919E+01  0.33431647888E+01  0.51109989000E-03 0. -1.
     -623    1    1    2    0    0 -0.63428969697E-02 -0.21516063263E-01  0.11672345862E-02  0.25126710040E+02  0.25126700000E+02 0. -1.
     -611    1    3    3    0    0 -0.17966057449E-01  0.28051575029E-01  0.31462475898E+01  0.31464398241E+01  0.10000000000E-01 0.  1.
      611    1    3    3    0    0  0.25195780947E-01 -0.65119623924E-01  0.55099338728E+01  0.55103853473E+01  0.10000000000E-01 0. -1.
</event>
<event>
 7   0  0.6206631E-02  0.9118800E+02  0.7818608E-02  0.1180000E+00
       11   -1    0    0    0    0  0.00000000000E+00  0.00000000000E+00  0.11999999989E+02  0.12000000000E+02  0.51109989000E-03 0.  1.
     -623   -1    0    0    0    0  0.00000000000E+00  0.00000000000E+00  0.42561509872E-11  0.25126700000E+02  0.25126700000E+02 0.  1.
      622    2    1    2    0    0  0.80156424385E-01 -0.25654217105E-01  0.44209934695E+01  0.44235576676E+01  0.12488390345E+00 0.  0.
       11    1    1    2    0    0 -0.11978734189E+00  0.48443043324E-01  0.75752985484E+01  0.75764004709E+01  0.51109989000E-03 0.  1.
     -623    1    1    2    0    0  0.39630917500E-01 -0.22788826219E-01  0.37079711681E-02  0.25126741862E+02  0.25126700000E+02 0.  1.
     -611    1    3    3    0    0  0.95965141293E-01 -0.76654294580E-02  0.19270271742E+01  0.19294563476E+01  0.10000000000E-01 0.  1.
      611    1    3    3    0    0 -0.15808716908E-01 -0.17988787647E-01  0.24939662953E+01  0.24941013200E+01  0.10000000000E-01 0. -1.
</event>
<event>
 7   0  0.6206631E-02  0.9118800E+02  0.7818608E-02  0.1180000E+00
       11   -1    0    0    0    0  0.00000000000E+00  0.00000000000E+00  0.11999999989E+02  0.12000000000E+02  0.51109989000E-03 0. -1.
     -623   -1    0    0    0    0  0.00000000000E+00  0.00000000000E+00  0.42561509872E-11  0.25126700000E+02  0.25126700000E+02 0. -1.
      622    2    1    2    0    0  0.38952291125E-01  0.29305231408E-01  0.10500679501E+02  0.10501299686E+02  0.10319415606E+00 0.  0.
       11    1    1    2    0    0 -0.45893359662E-01 -0.21596503864E-01  0.14978395143E+01  0.14986981288E+01  0.51109989000E-03 0. -1.
     -623    1    1    2    0    0  0.69410685373E-02 -0.77087275439E-02  0.14809734188E-02  0.25126702185E+02  0.25126700000E+02 0. -1.
     -611    1    3    3    0    0 -0.18381344769E-01  0.35327484524E-01  0.20140485275E+01  0.20144670204E+01  0.10000000000E-01 0. -1.
      611    1    3    3    0    0  0.57333635894E-01 -0.60222531160E-02  0.84866309738E+01  0.84868326659E+01  0.10000000000E-01 0.  1.
</event>
<event>
 7   0  0.6206631E-02  0.9118800E+02  0.7818608E-02  0.1180000E+00
       11   -1    0    0    0    0  0.00000000000E+00  0.00000000000E+00  0.11999999989E+02  0.12000000000E+02  0.51109989000E-03 0.  1.
     -623   -1    0    0    0    0  0.00000000000E+00  0.00000000000E+00  0.42561509872E-11  0.25126700000E+02  0.25126700000E+02 0.  1.
      622    2    1    2    0    0 -0.42277105960E-02  0.60236960529E-02  0.11970958984E+02  0.11971301734E+02  0.90288725407E-01 0.  0.
       11    1    1    2    0    0  0.50767931142E-02 -0.27697113792E-02  0.28104628982E-01  0.28698022977E-01  0.51109989000E-03 0.  1.
     -623    1    1    2    0    0 -0.84908251818E-03 -0.32539846738E-02  0.93637571517E-03  0.25126700242E+02  0.25126700000E+02 0.  1.
     -611    1    3    3    0    0 -0.23434891681E-01 -0.10598177317E-03  0.10153833407E+01  0.10157029752E+01  0.10000000000E-01 0. -1.
      611    1    3    3    0    0  0.19207181085E-01  0.61296778261E-02  0.10955575644E+02  0.10955598759E+02  0.10000000000E-01 0.  1.
</event>
<event>
 7   0  0.6206631E-02  0.9118800E+02  0.7818608E-02  0.1180000E+00
       11   -1    0    0    0    0  0.00000000000E+00  0.00000000000E+00  0.11999999989E+02  0.12000000000E+02  0.51109989000E-03 0. -1.
     -623   -1    0    0    0    0  0.00000000000E+00  0.00000000000E+00  0.42561509872E-11  0.25126700000E+02  0.25126700000E+02 0.  1.
      622    2    1    2    0    0  0.10694286274E-02  0.21256071778E-02  0.11984999161E+02  0.11985552315E+02  0.11512488317E+00 0.  0.
       11    1    1    2    0    0  0.60568330005E-02  0.31256037463E-02  0.12726811201E-01  0.14446022678E-01  0.51109989000E-03 0. -1.
     -623    1    1    2    0    0 -0.71262616278E-02 -0.52512109241E-02  0.22740165301E-02  0.25126701662E+02  0.25126700000E+02 0.  1.
     -611    1    3    3    0    0  0.15855681851E-01 -0.19857005377E-01  0.72014089518E+00  0.72065845739E+00  0.10000000000E-01 0.  1.
      611    1    3    3    0    0 -0.14786253224E-01  0.21982612555E-01  0.11264858266E+02  0.11264893858E+02  0.10000000000E-01 0. -1.
</event>
<event>
 7   0  0.6206631E-02  0.9118800E+02  0.7818608E-02  0.1180000E+00
       11   -1    0    0    0    0  0.00000000000E+00  0.00000000000E+00  0.11999999989E+02  0.12000000000E+02  0.51109989000E-03 0. -1.
     -623   -1    0    0    0    0  0.00000000000E+00  0.00000000000E+00  0.42561509872E-11  0.25126700000E+02  0.25126700000E+02 0. -1.
      622    2    1    2    0    0  0.12473794566E-01  0.11220755893E+00  0.22214675386E+01  0.22302328348E+01  0.16209361613E+00 0.  0.
       11    1    1    2    0    0 -0.14342214290E-02 -0.75134467253E-01  0.97694467128E+01  0.97697357478E+01  0.51109989000E-03 0. -1.
     -623    1    1    2    0    0 -0.11039573137E-01 -0.37073091678E-01  0.90857377206E-02  0.25126731417E+02  0.25126700000E+02 0. -1.
     -611    1    3    3    0    0  0.46563185260E-01  0.76952491493E-02  0.14609311952E+01  0.14617275069E+01  0.10000000000E-01 0. -1.
      611    1    3    3    0    0 -0.34089390694E-01  0.10451230978E+00  0.76053634334E+00  0.76850532789E+00  0.10000000000E-01 0.  1.
</event>
<event>
 7   0  0.6206631E-02  0.9118800E+02  0.7818608E-02  0.1180000E+00
       11   -1    0    0    0    0  0.00000000000E+00  0.00000000000E+00  0.11999999989E+02  0.12000000000E+02  0.51109989000E-03 0. -1.
     -623   -1    0    0    0    0  0.00000000000E+00  0.00000000000E+00  0.42561509872E-11  0.25126700000E+02  0.25126700000E+02 0. -1.
      622    2    1    2    0    0  0.14277876929E+00 -0.75153354982E-01  0.56481223170E+01  0.56509988868E+01  0.80429519109E-01 0.  0.
       11    1    1    2    0    0 -0.74225820215E-01 -0.24106112181E-01  0.63482315698E+01  0.63487112788E+01  0.51109989000E-03 0. -1.
     -623    1    1    2    0    0 -0.68552949074E-01  0.99259467163E-01  0.36461022926E-02  0.25126989834E+02  0.25126700000E+02 0. -1.
     -611    1    3    3    0    0 -0.39831300491E-02 -0.11455878014E-01  0.97779609360E+00  0.97792244229E+00  0.10000000000E-01 0.  1.
      611    1    3    3    0    0  0.14676189934E+00 -0.63697476967E-01  0.46703262234E+01  0.46730764446E+01  0.10000000000E-01 0.  1.
</event>
<event>
 7   0  0.6206631E-02  0.9118800E+02  0.7818608E-02  0.1180000E+00
       11   -1    0    0    0    0  0.00000000000E+00  0.00000000000E+00  0.11999999989E+02  0.12000000000E+02  0.51109989000E-03 0.  1.
     -623   -1    0    0    0    0  0.00000000000E+00  0.00000000000E+00  0.42561509872E-11  0.25126700000E+02  0.25126700000E+02 0.  1.
      622    2    1    2    0    0  0.24949353870E-02  0.44530605175E-02  0.11879639792E+02  0.11880055261E+02  0.99223789676E-01 0.  0.
       11    1    1    2    0    0 -0.34419781021E-02  0.10533231923E-01  0.11942613818E+00  0.11994023467E+00  0.51109989000E-03 0.  1.
     -623    1    1    2    0    0  0.94704271507E-03 -0.14986292440E-01  0.93405886568E-03  0.25126704504E+02  0.25126700000E+02 0.  1.
     -611    1    3    3    0    0 -0.57196597847E-02  0.49469310297E-01  0.50716753192E+01  0.50719296595E+01  0.10000000000E-01 0. -1.
      611    1    3    3    0    0  0.82145951717E-02 -0.45016249779E-01  0.68079644728E+01  0.68081256015E+01  0.10000000000E-01 0.  1.
</event>
<event>
 7   0  0.6206631E-02  0.9118800E+02  0.7818608E-02  0.1180000E+00
       11   -1    0    0    0    0  0.00000000000E+00  0.00000000000E+00  0.11999999989E+02  0.12000000000E+02  0.51109989000E-03 0.  1.
     -623   -1    0    0    0    0  0.00000000000E+00  0.00000000000E+00  0.42561509872E-11  0.25126700000E+02  0.25126700000E+02 0.  1.
      622    2    1    2    0    0 -0.14513192561E-01 -0.19111797313E-01  0.11919992729E+02  0.11920144832E+02  0.55229165846E-01 0.  0.
       11    1    1    2    0    0  0.13469379762E-01  0.11474969826E-01  0.77867092839E-01  0.79853894670E-01  0.51109989000E-03 0.  1.
     -623    1    1    2    0    0  0.10438127995E-02  0.76368274869E-02  0.21401672285E-02  0.25126701273E+02  0.25126700000E+02 0.  1.
     -611    1    3    3    0    0  0.71393062172E-02 -0.29424215311E-01  0.81611570526E+01  0.81612193447E+01  0.10000000000E-01 0.  1.
      611    1    3    3    0    0 -0.21652498779E-01  0.10312417998E-01  0.37588356764E+01  0.37589254872E+01  0.10000000000E-01 0. -1.
</event>
<event>
 7   0  0.6206631E-02  0.9118800E+02  0.7818608E-02  0.1180000E+00
       11   -1    0    0    0    0  0.00000000000E+00  0.00000000000E+00  0.11999999989E+02  0.12000000000E+02  0.51109989000E-03 0.  1.
     -623   -1    0    0    0    0  0.00000000000E+00  0.00000000000E+00  0.42561509872E-11  0.25126700000E+02  0.25126700000E+02 0.  1.
      622    2    1    2    0    0  0.26729868641E-02  0.13932408770E-02  0.11969368157E+02  0.11969768164E+02  0.97809740305E-01 0.  0.
       11    1    1    2    0    0  0.22638677283E-02 -0.27850825556E-02  0.30013143073E-01  0.30231304341E-01  0.51109989000E-03 0.  1.
     -623    1    1    2    0    0 -0.49368545924E-02  0.13918416786E-02  0.61868893040E-03  0.25126700531E+02  0.25126700000E+02 0.  1.
     -611    1    3    3    0    0 -0.30628674044E-01  0.26756097985E-01  0.29494311030E+01  0.29497284342E+01  0.10000000000E-01 0. -1.
      611    1    3    3    0    0  0.33301660908E-01 -0.25362857108E-01  0.90199370541E+01  0.90200397303E+01  0.10000000000E-01 0.  1.
</event>
<event>
 7   0  0.6206631E-02  0.9118800E+02  0.7818608E-02  0.1180000E+00
       11   -1    0    0    0    0  0.00000000000E+00  0.00000000000E+00  0.11999999989E+02  0.12000000000E+02  0.51109989000E-03 0. -1.
     -623   -1    0    0    0    0  0.00000000000E+00  0.00000000000E+00  0.42561509872E-11  0.25126700000E+02  0.25126700000E+02 0.  1.
      622    2    1    2    0    0  0.57684420146E-04 -0.13742990690E-02  0.11997268778E+02  0.11997466439E+02  0.68854492393E-01 0.  0.
       11    1    1    2    0    0 -0.11664164606E-02 -0.11366069103E-02  0.18720233289E-02  0.25333963547E-02  0.51109989000E-03 0. -1.
     -623    1    1    2    0    0  0.11087320405E-02  0.25109059793E-02  0.85918816236E-03  0.25126700165E+02  0.25126700000E+02 0.  1.
     -611    1    3    3    0    0  0.26533475409E-02  0.26531771547E-01  0.27026893934E+01  0.27028394204E+01  0.10000000000E-01 0.  1.
      611    1    3    3    0    0 -0.25956631208E-02 -0.27906070616E-01  0.92945793841E+01  0.92946270185E+01  0.10000000000E-01 0. -1.
</event>
<event>
 7   0  0.6206631E-02  0.9118800E+02  0.7818608E-02  0.1180000E+00
       11   -1    0    0    0    0  0.00000000000E+00  0.00000000000E+00  0.11999999989E+02  0.12000000000E+02  0.51109989000E-03 0.  1.
     -623   -1    0    0    0    0  0.00000000000E+00  0.00000000000E+00  0.42561509872E-11  0.25126700000E+02  0.25126700000E+02 0.  1.
      622    2    1    2    0    0  0.80219255228E-01  0.23309983113E-01  0.99692678028E+01  0.99702177559E+01  0.10937592316E+00 0.  0.
       11    1    1    2    0    0 -0.39718968867E-01 -0.68739119418E-01  0.20281551423E+01  0.20297084041E+01  0.51109989000E-03 0.  1.
     -623    1    1    2    0    0 -0.40500286361E-01  0.45429136305E-01  0.25770440925E-02  0.25126773840E+02  0.25126700000E+02 0.  1.
     -611    1    3    3    0    0  0.17235605574E-01  0.23696919631E-01  0.65474845358E+00  0.65548008937E+00  0.10000000000E-01 0. -1.
      611    1    3    3    0    0  0.62983649654E-01 -0.38693651806E-03  0.93145193492E+01  0.93147376665E+01  0.10000000000E-01 0.  1.
</event>
<event>
 7   0  0.6206631E-02  0.9118800E+02  0.7818608E-02  0.1180000E+00
       11   -1    0    0    0    0  0.00000000000E+00  0.00000000000E+00  0.11999999989E+02  0.12000000000E+02  0.51109989000E-03 0.  1.
     -623   -1    0    0    0    0  0.00000000000E+00  0.00000000000E+00  0.42561509872E-11  0.25126700000E+02  0.25126700000E+02 0.  1.
      622    2    1    2    0    0 -0.11784637125E-02 -0.73582525818E-03  0.11998040574E+02  0.11998349980E+02  0.86155073501E-01 0.  0.
       11    1    1    2    0    0  0.54631694584E-03 -0.43058781231E-03  0.14061791384E-02  0.16499790788E-02  0.51109989000E-03 0.  1.
     -623    1    1    2    0    0  0.63214676667E-03  0.11664130705E-02  0.55323616307E-03  0.25126700041E+02  0.25126700000E+02 0.  1.
     -611    1    3    3    0    0 -0.14869845267E-01  0.24001977733E-01  0.10306791412E+02  0.10306834937E+02  0.10000000000E-01 0.  1.
      611    1    3    3    0    0  0.13691381554E-01 -0.24737802991E-01  0.16912491615E+01  0.16915150426E+01  0.10000000000E-01 0. -1.
</event>
<event>
 7   0  0.6206631E-02  0.9118800E+02  0.7818608E-02  0.1180000E+00
       11   -1    0    0    0    0  0.00000000000E+00  0.00000000000E+00  0.11999999989E+02  0.12000000000E+02  0.51109989000E-03 0.  1.
     -623   -1    0    0    0    0  0.00000000000E+00  0.00000000000E+00  0.42561509872E-11  0.25126700000E+02  0.25126700000E+02 0. -1.
      622    2    1    2    0    0  0.45616926319E-01 -0.32565349850E-01  0.10204755067E+02  0.10205625072E+02  0.12089555546E+00 0.  0.
       11    1    1    2    0    0 -0.55515230365E-01  0.22616977640E-01  0.17933692693E+01  0.17943709388E+01  0.51109989000E-03 0.  1.
     -623    1    1    2    0    0  0.98983040458E-02  0.99483722100E-02  0.18756530472E-02  0.25126703989E+02  0.25126700000E+02 0. -1.
     -611    1    3    3    0    0  0.75205434655E-01 -0.12743528895E-01  0.89352688415E+01  0.89356000092E+01  0.10000000000E-01 0.  1.
      611    1    3    3    0    0 -0.29588508336E-01 -0.19821820955E-01  0.12694862253E+01  0.12700250630E+01  0.10000000000E-01 0. -1.
</event>
<event>
 7   0  0.6206631E-02  0.9118800E+02  0.7818608E-02  0.1180000E+00
       11   -1    0    0    0    0  0.00000000000E+00  0.00000000000E+00  0.11999999989E+02  0.12000000000E+02  0.51109989000E-03 0. -1.
     -623   -1    0    0    0    0  0.00000000000E+00  0.00000000000E+00  0.42561509872E-11  0.25126700000E+02  0.25126700000E+02 0.  1.
      622    2    1    2    0    0  0.18731335296E-03  0.93811041038E-03  0.11983876599E+02  0.11984180678E+02  0.85365437868E-01 0.  0.
       11    1    1    2    0    0 -0.12256374675E-02 -0.18875958411E-02  0.15650020181E-01  0.15819278115E-01  0.51109989000E-03 0. -1.
     -623    1    1    2    0    0  0.10383241145E-02  0.94948543072E-03  0.47336949843E-03  0.25126700044E+02  0.25126700000E+02 0.  1.
     -611    1    3    3    0    0 -0.39918526409E-01 -0.55678585526E-02  0.72600938326E+01  0.72602125966E+01  0.10000000000E-01 0.  1.
      611    1    3    3    0    0  0.40105839762E-01  0.65059689630E-02  0.47237827668E+01  0.47239680813E+01  0.10000000000E-01 0. -1.
</event>
<event>
 7   0  0.6206631E-02  0.9118800E+02  0.7818608E-02  0.1180000E+00
       11   -1    0    0    0    0  0.00000000000E+00  0.00000000000E+00  0.11999999989E+02  0.12000000000E+02  0.51109989000E-03 0. -1.
     -623   -1    0    0    0    0  0.00000000000E+00  0.00000000000E+00  0.42561509872E-11  0.25126700000E+02  0.25126700000E+02 0.  1.
      622    2    1    2    0    0  0.32803472531E-01  0.17996882072E-01  0.48706020240E+01  0.48715026269E+01  0.85870903804E-01 0.  0.
       11    1    1    2    0    0 -0.35518794083E-01 -0.14525646196E-01  0.71283936592E+01  0.71284969665E+01  0.51109989000E-03 0. -1.
     -623    1    1    2    0    0  0.27153215511E-02 -0.34712358760E-02  0.10043058438E-02  0.25126700407E+02  0.25126700000E+02 0.  1.
     -611    1    3    3    0    0  0.34587225312E-01  0.45058141276E-01  0.40112404526E+01  0.40116550800E+01  0.10000000000E-01 0.  1.
      611    1    3    3    0    0 -0.17837527810E-02 -0.27061259205E-01  0.85936157142E+00  0.85984754693E+00  0.10000000000E-01 0. -1.
</event>
<event>
 7   0  0.6206631E-02  0.9118800E+02  0.7818608E-02  0.1180000E+00
       11   -1    0    0    0    0  0.00000000000E+00  0.00000000000E+00  0.11999999989E+02  0.12000000000E+02  0.51109989000E-03 0.  1.
     -623   -1    0    0    0    0  0.00000000000E+00  0.00000000000E+00  0.42561509872E-11  0.25126700000E+02  0.25126700000E+02 0. -1.
      622    2    1    2    0    0  0.12460243963E-02  0.13387317222E-01  0.11547318157E+02  0.11547672312E+02  0.89433930898E-01 0.  0.
       11    1    1    2    0    0 -0.12078208395E-01  0.16490677157E-01  0.45184516805E+00  0.45230757529E+00  0.51109989000E-03 0.  1.
     -623    1    1    2    0    0  0.10832183999E-01 -0.29877994378E-01  0.83666379700E-03  0.25126720113E+02  0.25126700000E+02 0. -1.
     -611    1    3    3    0    0 -0.11234988670E-01  0.49057167629E-01  0.63904652586E+01  0.63906712521E+01  0.10000000000E-01 0.  1.
      611    1    3    3    0    0  0.12481013066E-01 -0.35669850407E-01  0.51568528987E+01  0.51570010600E+01  0.10000000000E-01 0. -1.
</event>
<event>
 7   0  0.6206631E-02  0.9118800E+02  0.7818608E-02  0.1180000E+00
       11   -1    0    0    0    0  0.00000000000E+00  0.00000000000E+00  0.11999999989E+02  0.12000000000E+02  0.51109989000E-03 0. -1.
     -623   -1    0    0    0    0  0.00000000000E+00  0.00000000000E+00  0.42561509872E-11  0.25126700000E+02  0.25126700000E+02 0.  1.
      622    2    1    2    0    0  0.18248530386E-01 -0.25521052235E-01  0.91554407881E+01  0.91560595978E+01  0.10172020966E+00 0.  0.
       11    1    1    2    0    0 -0.18239202729E-01  0.31670191818E-01  0.28437047522E+01  0.28439396352E+01  0.51109989000E-03 0. -1.
     -623    1    1    2    0    0 -0.93276568220E-05 -0.61491395830E-02  0.85444873967E-03  0.25126700767E+02  0.25126700000E+02 0.  1.
     -611    1    3    3    0    0  0.27980366124E-01  0.11360718075E-01  0.77511233257E+01  0.77511886042E+01  0.10000000000E-01 0. -1.
      611    1    3    3    0    0 -0.97318357384E-02 -0.36881770310E-01  0.14043174624E+01  0.14048709936E+01  0.10000000000E-01 0.  1.
</event>
<event>
 7   0  0.6206631E-02  0.9118800E+02  0.7818608E-02  0.1180000E+00
       11   -1    0    0    0    0  0.00000000000E+00  0.00000000000E+00  0.11999999989E+02  0.12000000000E+02  0.51109989000E-03 0.  1.
     -623   -1    0    0    0    0  0.00000000000E+00  0.00000000000E+00  0.42561509872E-11  0.25126700000E+02  0.25126700000E+02 0. -1.
      622    2    1    2    0    0  0.13075461166E-01 -0.89156465668E-02  0.11652699207E+02  0.11653164157E+02  0.10288633795E+00 0.  0.
       11    1    1    2    0    0 -0.18171563140E-01 -0.99775096187E-02  0.34620771549E+00  0.34682819940E+00  0.51109989000E-03 0.  1.
     -623    1    1    2    0    0  0.50961019740E-02  0.18893156185E-01  0.10930663446E-02  0.25126707644E+02  0.25126700000E+02 0. -1.
     -611    1    3    3    0    0 -0.23845552643E-01 -0.42224873665E-01  0.73334368550E+01  0.73336040019E+01  0.10000000000E-01 0.  1.
      611    1    3    3    0    0  0.36921013808E-01  0.33309227098E-01  0.43192623523E+01  0.43195601551E+01  0.10000000000E-01 0. -1.
</event>
<event>
 7   0  0.6206631E-02  0.9118800E+02  0.7818608E-02  0.1180000E+00
       11   -1    0    0    0    0  0.00000000000E+00  0.00000000000E+00  0.11999999989E+02  0.12000000000E+02  0.51109989000E-03 0.  1.
     -623   -1    0    0    0    0  0.00000000000E+00  0.00000000000E+00  0.42561509872E-11  0.25126700000E+02  0.25126700000E+02 0.  1.
      622    2    1    2    0    0 -0.12126556644E-02  0.11065833998E-01  0.11912065519E+02  0.11913258600E+02  0.16823079142E+00 0.  0.
       11    1    1    2    0    0  0.16315472904E-01 -0.71420488570E-02  0.84886590100E-01  0.86736370225E-01  0.51109989000E-03 0.  1.
     -623    1    1    2    0    0 -0.15102817239E-01 -0.39237851406E-02  0.30478795645E-02  0.25126705030E+02  0.25126700000E+02 0.  1.
     -611    1    3    3    0    0 -0.67205886895E-01 -0.20839469540E-01  0.28316785749E+01  0.28325702933E+01  0.10000000000E-01 0. -1.
      611    1    3    3    0    0  0.65993231231E-01  0.31905303538E-01  0.90803869445E+01  0.90806883063E+01  0.10000000000E-01 0.  1.
</event>
<event>
 7   0  0.6206631E-02  0.9118800E+02  0.7818608E-02  0.1180000E+00
       11   -1    0    0    0    0  0.00000000000E+00  0.00000000000E+00  0.11999999989E+02  0.12000000000E+02  0.51109989000E-03 0. -1.
     -623   -1    0    0    0    0  0.00000000000E+00  0.00000000000E+00  0.42561509872E-11  0.25126700000E+02  0.25126700000E+02 0.  1.
      622    2    1    2    0    0  0.55596911637E-02 -0.36921636773E-02  0.11622933453E+02  0.11623387377E+02  0.10250628222E+00 0.  0.
       11    1    1    2    0    0 -0.31689028827E-02 -0.14217415046E-02  0.37659562128E+00  0.37661198398E+00  0.51109989000E-03 0. -1.
     -623    1    1    2    0    0 -0.23907882810E-02  0.51139051819E-02  0.47091512644E-03  0.25126700639E+02  0.25126700000E+02 0.  1.
     -611    1    3    3    0    0  0.39054090147E-01  0.69646705377E-02  0.98117743717E+01  0.98118596632E+01  0.10000000000E-01 0. -1.
      611    1    3    3    0    0 -0.33494398984E-01 -0.10656834215E-01  0.18111590810E+01  0.18115277143E+01  0.10000000000E-01 0.  1.
</event>
<event>
 7   0  0.6206631E-02  0.9118800E+02  0.7818608E-02  0.1180000E+00
       11   -1    0    0    0    0  0.00000000000E+00  0.00000000000E+00  0.11999999989E+02  0.12000000000E+02  0.51109989000E-03 0. -1.
     -623   -1    0    0    0    0  0.00000000000E+00  0.00000000000E+00  0.42561509872E-11  0.25126700000E+02  0.25126700000E+02 0. -1.
      622    2    1    2    0    0  0.19771676016E-01  0.23842316043E-01  0.11435445958E+02  0.11436015242E+02  0.10982251355E+00 0.  0.
       11    1    1    2    0    0 -0.39332552362E-02 -0.80699323866E-02  0.56390311910E+00  0.56397480730E+00  0.51109989000E-03 0. -1.
     -623    1    1    2    0    0 -0.15838420779E-01 -0.15772383656E-01  0.65091194820E-03  0.25126709951E+02  0.25126700000E+02 0. -1.
     -611    1    3    3    0    0 -0.14967497456E-01 -0.19773829733E-01  0.85587594175E+00  0.85629355830E+00  0.10000000000E-01 0. -1.
      611    1    3    3    0    0  0.34739173471E-01  0.43616145775E-01  0.10579570016E+02  0.10579721684E+02  0.10000000000E-01 0. -1.
</event>
<event>
 7   0  0.6206631E-02  0.9118800E+02  0.7818608E-02  0.1180000E+00
       11   -1    0    0    0    0  0.00000000000E+00  0.00000000000E+00  0.11999999989E+02  0.12000000000E+02  0.51109989000E-03 0. -1.
     -623   -1    0    0    0    0  0.00000000000E+00  0.00000000000E+00  0.42561509872E-11  0.25126700000E+02  0.25126700000E+02 0.  1.
      622    2    1    2    0    0 -0.47968260164E-02  0.48265554739E-01  0.10312748717E+02  0.10313055741E+02  0.63087625715E-01 0.  0.
       11    1    1    2    0    0 -0.17593041323E-03 -0.42957545609E-01  0.16863960654E+01  0.16869431918E+01  0.51109989000E-03 0. -1.
     -623    1    1    2    0    0  0.49727564296E-02 -0.53080091304E-02  0.85520701967E-03  0.25126701067E+02  0.25126700000E+02 0.  1.
     -611    1    3    3    0    0 -0.15499630448E-01  0.18542619491E-01  0.13932382276E+01  0.13934837015E+01  0.10000000000E-01 0.  1.
      611    1    3    3    0    0  0.10702804432E-01  0.29722935248E-01  0.89195104891E+01  0.89195720395E+01  0.10000000000E-01 0. -1.
</event>
<event>
 7   0  0.6206631E-02  0.9118800E+02  0.7818608E-02  0.1180000E+00
       11   -1    0    0    0    0  0.00000000000E+00  0.00000000000E+00  0.11999999989E+02  0.12000000000E+02  0.51109989000E-03 0. -1.
     -623   -1    0    0    0    0  0.00000000000E+00  0.00000000000E+00  0.42561509872E-11  0.25126700000E+02  0.25126700000E+02 0. -1.
      622    2    1    2    0    0 -0.93428644676E-03  0.58207649731E-02  0.11873205292E+02  0.11873628664E+02  0.10009492001E+00 0.  0.
       11    1    1    2    0    0  0.25297713145E-02 -0.30365780195E-02  0.12630827243E+00  0.12637112588E+00  0.51109989000E-03 0. -1.
     -623    1    1    2    0    0 -0.15954848678E-02 -0.27841869536E-02  0.48642429623E-03  0.25126700210E+02  0.25126700000E+02 0. -1.
     -611    1    3    3    0    0  0.40575201472E-01 -0.23685497603E-01  0.61916094919E+01  0.61917958178E+01  0.10000000000E-01 0.  1.
      611    1    3    3    0    0 -0.41509487919E-01  0.29506262576E-01  0.56815958005E+01  0.56818328467E+01  0.10000000000E-01 0. -1.
</event>
<event>
 7   0  0.6206631E-02  0.9118800E+02  0.7818608E-02  0.1180000E+00
       11   -1    0    0    0    0  0.00000000000E+00  0.00000000000E+00  0.11999999989E+02  0.12000000000E+02  0.51109989000E-03 0.  1.
     -623   -1    0    0    0    0  0.00000000000E+00  0.00000000000E+00  0.42561509872E-11  0.25126700000E+02  0.25126700000E+02 0. -1.
      622    2    1    2    0    0  0.10691912230E-02 -0.23366961316E-01  0.32355018851E+01  0.32375403501E+01  0.11246293781E+00 0.  0.
       11    1    1    2    0    0 -0.23135309515E-02  0.32678704111E-01  0.87623965493E+01  0.87624578058E+01  0.51109989000E-03 0.  1.
     -623    1    1    2    0    0  0.12443397285E-02 -0.93117427946E-02  0.21015548102E-02  0.25126701844E+02  0.25126700000E+02 0. -1.
     -611    1    3    3    0    0 -0.53735975652E-01 -0.14518165092E-01  0.19135498612E+01  0.19143853853E+01  0.10000000000E-01 0.  1.
      611    1    3    3    0    0  0.54805166875E-01 -0.88487962240E-02  0.13219520238E+01  0.13231549648E+01  0.10000000000E-01 0. -1.
</event>
<event>
 7   0  0.6206631E-02  0.9118800E+02  0.7818608E-02  0.1180000E+00
       11   -1    0    0    0    0  0.00000000000E+00  0.00000000000E+00  0.11999999989E+02  0.12000000000E+02  0.51109989000E-03 0. -1.
     -623   -1    0    0    0    0  0.00000000000E+00  0.00000000000E+00  0.42561509872E-11  0.25126700000E+02  0.25126700000E+02 0. -1.
      622    2    1    2    0    0 -0.47813064962E-02 -0.33668749689E-02  0.11991090372E+02  0.11991579397E+02  0.10813848838E+00 0.  0.
       11    1    1    2    0    0  0.31753222200E-02  0.50528341067E-02  0.59183365967E-02  0.84203167932E-02  0.51109989000E-03 0. -1.
     -623    1    1    2    0    0  0.16059842762E-02 -0.16859591379E-02  0.29912804357E-02  0.25126700286E+02  0.25126700000E+02 0. -1.
     -611    1    3    3    0    0  0.46887924013E-01  0.18117811945E-01  0.60504888780E+01  0.60507059419E+01  0.10000000000E-01 0. -1.
      611    1    3    3    0    0 -0.51669230509E-01 -0.21484686914E-01  0.59406014940E+01  0.59408734553E+01  0.10000000000E-01 0.  1.
</event>
<event>
 7   0  0.6206631E-02  0.9118800E+02  0.7818608E-02  0.1180000E+00
       11   -1    0    0    0    0  0.00000000000E+00  0.00000000000E+00  0.11999999989E+02  0.12000000000E+02  0.51109989000E-03 0.  1.
     -623   -1    0    0    0    0  0.00000000000E+00  0.00000000000E+00  0.42561509872E-11  0.25126700000E+02  0.25126700000E+02 0. -1.
      622    2    1    2    0    0  0.22091838093E-01 -0.65890117285E-02  0.11939555366E+02  0.11940735266E+02  0.16626750714E+00 0.  0.
       11    1    1    2    0    0 -0.31988072698E-01 -0.19601808434E-01  0.45850069758E-01  0.59244896901E-01  0.51109989000E-03 0.  1.
     -623    1    1    2    0    0  0.98962346056E-02  0.26190820163E-01  0.14594553353E-01  0.25126719837E+02  0.25126700000E+02 0. -1.
     -611    1    3    3    0    0  0.50775426516E-01  0.49451056459E-01  0.97231324176E+01  0.97233958862E+01  0.10000000000E-01 0.  1.
      611    1    3    3    0    0 -0.28683588423E-01 -0.56040068188E-01  0.22164229484E+01  0.22173393795E+01  0.10000000000E-01 0. -1.
</event>
<event>
 7   0  0.6206631E-02  0.9118800E+02  0.7818608E-02  0.1180000E+00
       11   -1    0    0    0    0  0.00000000000E+00  0.00000000000E+00  0.11999999989E+02  0.12000000000E+02  0.51109989000E-03 0. -1.
     -623   -1    0    0    0    0  0.00000000000E+00  0.00000000000E+00  0.42561509872E-11  0.25126700000E+02  0.25126700000E+02 0. -1.
      622    2    1    2    0    0 -0.69180096620E-01 -0.10003561915E+00  0.89125744006E+01  0.89139362345E+01  0.97384472827E-01 0.  0.
       11    1    1    2    0    0  0.12488397979E+00  0.42449440259E-01  0.30831154184E+01  0.30859356617E+01  0.51109989000E-03 0. -1.
     -623    1    1    2    0    0 -0.55703883170E-01  0.57586178892E-01  0.43101700607E-02  0.25126828104E+02  0.25126700000E+02 0. -1.
     -611    1    3    3    0    0 -0.43764692655E-01 -0.12332802877E-01  0.13471735180E+01  0.13479777201E+01  0.10000000000E-01 0.  1.
      611    1    3    3    0    0 -0.25415403965E-01 -0.87702816274E-01  0.75654008826E+01  0.75659585144E+01  0.10000000000E-01 0. -1.
</event>
<event>
 7   0  0.6206631E-02  0.9118800E+02  0.7818608E-02  0.1180000E+00
       11   -1    0    0    0    0  0.00000000000E+00  0.00000000000E+00  0.11999999989E+02  0.12000000000E+02  0.51109989000E-03 0. -1.
     -623   -1    0    0    0    0  0.00000000000E+00  0.00000000000E+00  0.42561509872E-11  0.25126700000E+02  0.25126700000E+02 0.  1.
      622    2    1    2    0    0  0.11358229969E-01  0.13846400173E-01  0.11964756371E+02  0.11964972693E+02  0.69683619232E-01 0.  0.
       11    1    1    2    0    0  0.13184679599E-01 -0.18438388332E-01  0.26680890852E-01  0.35013441708E-01  0.51109989000E-03 0. -1.
     -623    1    1    2    0    0 -0.24542909567E-01  0.45919881594E-02  0.85627274322E-02  0.25126713865E+02  0.25126700000E+02 0.  1.
     -611    1    3    3    0    0  0.31423722315E-02  0.35412529357E-01  0.98103229635E+01  0.98103924779E+01  0.10000000000E-01 0. -1.
      611    1    3    3    0    0  0.82158577372E-02 -0.21566129184E-01  0.21544334072E+01  0.21545802154E+01  0.10000000000E-01 0. -1.
</event>
<event>
 7   0  0.6206631E-02  0.9118800E+02  0.7818608E-02  0.1180000E+00
       11   -1    0    0    0    0  0.00000000000E+00  0.00000000000E+00  0.11999999989E+02  0.12000000000E+02  0.51109989000E-03 0. -1.
     -623   -1    0    0    0    0  0.00000000000E+00  0.00000000000E+00  0.42561509872E-11  0.25126700000E+02  0.25126700000E+02 0.  1.
      622    2    1    2    0    0 -0.21891595175E-02  0.49422144528E-02  0.11835599272E+02  0.11836269152E+02  0.12580978446E+00 0.  0.
       11    1    1    2    0    0 -0.69053846741E-03 -0.72357530782E-02  0.16356834515E+00  0.16373056442E+00  0.51109989000E-03 0. -1.
     -623    1    1    2    0    0  0.28796979849E-02  0.22935386254E-02  0.83237222761E-03  0.25126700283E+02  0.25126700000E+02 0.  1.
     -611    1    3    3    0    0 -0.31220275305E-01  0.22605016256E-01  0.10783863283E+02  0.10783936805E+02  0.10000000000E-01 0. -1.
      611    1    3    3    0    0  0.29031115788E-01 -0.17662801804E-01  0.10517359883E+01  0.10523323474E+01  0.10000000000E-01 0.  1.
</event>
<event>
 7   0  0.6206631E-02  0.9118800E+02  0.7818608E-02  0.1180000E+00
       11   -1    0    0    0    0  0.00000000000E+00  0.00000000000E+00  0.11999999989E+02  0.12000000000E+02  0.51109989000E-03 0. -1.
     -623   -1    0    0    0    0  0.00000000000E+00  0.00000000000E+00  0.42561509872E-11  0.25126700000E+02  0.25126700000E+02 0. -1.
      622    2    1    2    0    0 -0.28550969863E-02 -0.36069770983E-01  0.11303561669E+02  0.11304103212E+02  0.10456492835E+00 0.  0.
       11    1    1    2    0    0 -0.76518000277E-02  0.37207998708E-01  0.69485677013E+00  0.69589451602E+00  0.51109989000E-03 0. -1.
     -623    1    1    2    0    0  0.10506897014E-01 -0.11382277253E-02  0.15815495145E-02  0.25126702272E+02  0.25126700000E+02 0. -1.
     -611    1    3    3    0    0 -0.51991289827E-02 -0.55168450206E-01  0.30905054855E+01  0.30910183993E+01  0.10000000000E-01 0.  1.
      611    1    3    3    0    0  0.23440319964E-02  0.19098679223E-01  0.82130561840E+01  0.82130848124E+01  0.10000000000E-01 0. -1.
</event>
<event>
 7   0  0.6206631E-02  0.9118800E+02  0.7818608E-02  0.1180000E+00
       11   -1    0    0    0    0  0.00000000000E+00  0.00000000000E+00  0.11999999989E+02  0.12000000000E+02  0.51109989000E-03 0.  1.
     -623   -1    0    0    0    0  0.00000000000E+00  0.00000000000E+00  0.42561509872E-11  0.25126700000E+02  0.25126700000E+02 0.  1.
      622    2    1    2    0    0  0.64687435723E-02  0.22189544593E-01  0.10153693871E+02  0.10154374608E+02  0.11528321418E+00 0.  0.
       11    1    1    2    0    0 -0.71168055578E-02 -0.12221743832E-01  0.18455691369E+01  0.18456233961E+01  0.51109989000E-03 0.  1.
     -623    1    1    2    0    0  0.64806198546E-03 -0.99678007619E-02  0.73698093963E-03  0.25126701996E+02  0.25126700000E+02 0.  1.
     -611    1    3    3    0    0  0.74529663457E-02  0.64972474667E-01  0.77239340831E+01  0.77242174160E+01  0.10000000000E-01 0.  1.
      611    1    3    3    0    0 -0.98422277338E-03 -0.42782930073E-01  0.24297597881E+01  0.24301571916E+01  0.10000000000E-01 0. -1.
</event>
<event>
 7   0  0.6206631E-02  0.9118800E+02  0.7818608E-02  0.1180000E+00
       11   -1    0    0    0    0  0.00000000000E+00  0.00000000000E+00  0.11999999989E+02  0.12000000000E+02  0.51109989000E-03 0.  1.
     -623   -1    0    0    0    0  0.00000000000E+00  0.00000000000E+00  0.42561509872E-11  0.25126700000E+02  0.25126700000E+02 0. -1.
      622    2    1    2    0    0 -0.16206271257E-01 -0.24882609548E-01  0.11517941986E+02  0.11518380203E+02  0.95984913335E-01 0.  0.
       11    1    1    2    0    0  0.51360009422E-01  0.12487044609E-01  0.47868229679E+00  0.48159192199E+00  0.51109989000E-03 0.  1.
     -623    1    1    2    0    0 -0.35153738165E-01  0.12395564939E-01  0.33757059205E-02  0.25126727875E+02  0.25126700000E+02 0. -1.
     -611    1    3    3    0    0  0.35751283550E-01  0.73461633444E-02  0.37387845134E+01  0.37389760307E+01  0.10000000000E-01 0. -1.
      611    1    3    3    0    0 -0.51957554807E-01 -0.32228772892E-01  0.77791574730E+01  0.77794041720E+01  0.10000000000E-01 0.  1.
</event>
<event>
 7   0  0.6206631E-02  0.9118800E+02  0.7818608E-02  0.1180000E+00
       11   -1    0    0    0    0  0.00000000000E+00  0.00000000000E+00  0.11999999989E+02  0.12000000000E+02  0.51109989000E-03 0.  1.
     -623   -1    0    0    0    0  0.00000000000E+00  0.00000000000E+00  0.42561509872E-11  0.25126700000E+02  0.25126700000E+02 0. -1.
      622    2    1    2    0    0 -0.19903434044E-01  0.86721652456E-01  0.89953542577E+01  0.89964377899E+01  0.10760061737E+00 0.  0.
       11    1    1    2    0    0 -0.70707800909E-02 -0.90618277834E-01  0.30021716304E+01  0.30035473074E+01  0.51109989000E-03 0.  1.
     -623    1    1    2    0    0  0.26974214135E-01  0.38966253779E-02  0.24741009720E-02  0.25126714903E+02  0.25126700000E+02 0. -1.
     -611    1    3    3    0    0 -0.16313278414E-01  0.69148709269E-01  0.24476426575E+01  0.24486939878E+01  0.10000000000E-01 0. -1.
      611    1    3    3    0    0 -0.35901556301E-02  0.17572943187E-01  0.65477116003E+01  0.65477438021E+01  0.10000000000E-01 0.  1.
</event>
<event>
 7   0  0.6206631E-02  0.9118800E+02  0.7818608E-02  0.1180000E+00
       11   -1    0    0    0    0  0.00000000000E+00  0.00000000000E+00  0.11999999989E+02  0.12000000000E+02  0.51109989000E-03 0.  1.
     -623   -1    0    0    0    0  0.00000000000E+00  0.00000000000E+00  0.42561509872E-11  0.25126700000E+02  0.25126700000E+02 0.  1.
      622    2    1    2    0    0 -0.11364953711E+00 -0.67350790573E-02  0.61470655383E+01  0.61487905537E+01  0.90823799384E-01 0.  0.
       11    1    1    2    0    0  0.59599522057E-01 -0.16114340830E-01  0.58508150737E+01  0.58511408343E+01  0.51109989000E-03 0.  1.
     -623    1    1    2    0    0  0.54050015051E-01  0.22849419887E-01  0.21193771419E-02  0.25126768612E+02  0.25126700000E+02 0.  1.
     -611    1    3    3    0    0 -0.41237833709E-02  0.25636764460E-01  0.17930309400E+01  0.17932468322E+01  0.10000000000E-01 0. -1.
      611    1    3    3    0    0 -0.10952575374E+00 -0.32371843517E-01  0.43540345983E+01  0.43555437215E+01  0.10000000000E-01 0.  1.
</event>
<event>
 7   0  0.6206631E-02  0.9118800E+02  0.7818608E-02  0.1180000E+00
       11   -1    0    0    0    0  0.00000000000E+00  0.00000000000E+00  0.11999999989E+02  0.12000000000E+02  0.51109989000E-03 0.  1.
     -623   -1    0    0    0    0  0.00000000000E+00  0.00000000000E+00  0.42561509872E-11  0.25126700000E+02  0.25126700000E+02 0.  1.
      622    2    1    2    0    0  0.70312004429E-02  0.26936243669E-02  0.11901321772E+02  0.11901483240E+02  0.61536102914E-01 0.  0.
       11    1    1    2    0    0 -0.14444583028E-01 -0.27170792718E-02  0.97411706641E-01  0.98515634863E-01  0.51109989000E-03 0.  1.
     -623    1    1    2    0    0  0.74133825852E-02  0.23454904924E-04  0.12665106437E-02  0.25126701126E+02  0.25126700000E+02 0.  1.
     -611    1    3    3    0    0  0.20223868000E-01  0.25279409418E-01  0.61626538984E+01  0.61627470438E+01  0.10000000000E-01 0.  1.
      611    1    3    3    0    0 -0.13192667558E-01 -0.22585785051E-01  0.57386678735E+01  0.57387361959E+01  0.10000000000E-01 0.  1.
</event>
<event>
 7   0  0.6206631E-02  0.9118800E+02  0.7818608E-02  0.1180000E+00
       11   -1    0    0    0    0  0.00000000000E+00  0.00000000000E+00  0.11999999989E+02  0.12000000000E+02  0.51109989000E-03 0.  1.
     -623   -1    0    0    0    0  0.00000000000E+00  0.00000000000E+00  0.42561509872E-11  0.25126700000E+02  0.25126700000E+02 0.  1.
      622    2    1    2    0    0 -0.10725109663E-01  0.19717838872E-01  0.81331134307E+01  0.81336582901E+01  0.91429109042E-01 0.  0.
       11    1    1    2    0    0  0.36152626386E-02 -0.24635628138E-01  0.38662600032E+01  0.38663402149E+01  0.51109989000E-03 0.  1.
     -623    1    1    2    0    0  0.71098470245E-02  0.49177892664E-02  0.62655523091E-03  0.25126701495E+02  0.25126700000E+02 0.  1.
     -611    1    3    3    0    0  0.30466004751E-01  0.52347916758E-02  0.13277673492E+01  0.13281647917E+01  0.10000000000E-01 0. -1.
      611    1    3    3    0    0 -0.41191114414E-01  0.14483047196E-01  0.68053460816E+01  0.68054934984E+01  0.10000000000E-01 0.  1.
</event>
<event>
 7   0  0.6206631E-02  0.9118800E+02  0.7818608E-02  0.1180000E+00
       11   -1    0    0    0    0  0.00000000000E+00  0.00000000000E+00  0.11999999989E+02  0.12000000000E+02  0.51109989000E-03 0.  1.
     -623   -1    0    0    0    0  0.00000000000E+00  0.00000000000E+00  0.42561509872E-11  0.25126700000E+02  0.25126700000E+02 0. -1.
      622    2    1    2    0    0 -0.33632059706E-01 -0.23694988201E-01  0.96127609692E+01  0.96132913687E+01  0.92222129705E-01 0.  0.
       11    1    1    2    0    0  0.36485691412E-01  0.23868710124E-01  0.23863101329E+01  0.23867084515E+01  0.51109989000E-03 0.  1.
     -623    1    1    2    0    0 -0.28536317069E-02 -0.17372192334E-03  0.92888709270E-03  0.25126700180E+02  0.25126700000E+02 0. -1.
     -611    1    3    3    0    0  0.13648150809E-01 -0.22887249419E-01  0.71473771685E+01  0.71474338393E+01  0.10000000000E-01 0.  1.
      611    1    3    3    0    0 -0.47280210515E-01 -0.80773878232E-03  0.24653838007E+01  0.24658575294E+01  0.10000000000E-01 0.  1.
</event>
<event>
 7   0  0.6206631E-02  0.9118800E+02  0.7818608E-02  0.1180000E+00
       11   -1    0    0    0    0  0.00000000000E+00  0.00000000000E+00  0.11999999989E+02  0.12000000000E+02  0.51109989000E-03 0.  1.
     -623   -1    0    0    0    0  0.00000000000E+00  0.00000000000E+00  0.42561509872E-11  0.25126700000E+02  0.25126700000E+02 0.  1.
      622    2    1    2    0    0 -0.40030374838E-02 -0.10587624729E-01  0.11860917391E+02  0.11861215916E+02  0.83387875823E-01 0.  0.
       11    1    1    2    0    0 -0.51961962325E-02 -0.10154918277E-01  0.13830325629E+00  0.13877382586E+00  0.51109989000E-03 0.  1.
     -623    1    1    2    0    0  0.91992337162E-02  0.20742543006E-01  0.77934185534E-03  0.25126710258E+02  0.25126700000E+02 0.  1.
     -611    1    3    3    0    0 -0.15270221113E-02  0.17435492878E-01  0.10261958569E+02  0.10261978367E+02  0.10000000000E-01 0.  1.
      611    1    3    3    0    0 -0.24760153725E-02 -0.28023117607E-01  0.15989588217E+01  0.15992375493E+01  0.10000000000E-01 0. -1.
</event>
<event>
 7   0  0.6206631E-02  0.9118800E+02  0.7818608E-02  0.1180000E+00
       11   -1    0    0    0    0  0.00000000000E+00  0.00000000000E+00  0.11999999989E+02  0.12000000000E+02  0.51109989000E-03 0.  1.
     -623   -1    0    0    0    0  0.00000000000E+00  0.00000000000E+00  0.42561509872E-11  0.25126700000E+02  0.25126700000E+02 0.  1.
      622    2    1    2    0    0  0.11444845137E+00 -0.85140693727E-02  0.86193698986E+01  0.86212196271E+01  0.13681912823E+00 0.  0.
       11    1    1    2    0    0 -0.99465992369E-01  0.17180161327E-01  0.33772660689E+01  0.33787741864E+01  0.51109989000E-03 0.  1.
     -623    1    1    2    0    0 -0.14982459002E-01 -0.86660919540E-02  0.33640217264E-02  0.25126706186E+02  0.25126700000E+02 0.  1.
     -611    1    3    3    0    0  0.58390116577E-01 -0.18250562167E-01  0.11812054641E+01  0.11828308574E+01  0.10000000000E-01 0. -1.
      611    1    3    3    0    0  0.56058334794E-01  0.97364927941E-02  0.74381644344E+01  0.74383887697E+01  0.10000000000E-01 0.  1.
</event>
<event>
 7   0  0.6206631E-02  0.9118800E+02  0.7818608E-02  0.1180000E+00
       11   -1    0    0    0    0  0.00000000000E+00  0.00000000000E+00  0.11999999989E+02  0.12000000000E+02  0.51109989000E-03 0. -1.
     -623   -1    0    0    0    0  0.00000000000E+00  0.00000000000E+00  0.42561509872E-11  0.25126700000E+02  0.25126700000E+02 0.  1.
      622    2    1    2    0    0  0.10135357083E-01  0.43406665240E-02  0.11608113423E+02  0.11608628059E+02  0.10875012361E+00 0.  0.
       11    1    1    2    0    0 -0.84980942997E-02 -0.30664802348E-02  0.39126722500E+00  0.39137184811E+00  0.51109989000E-03 0. -1.
     -623    1    1    2    0    0 -0.16372627834E-02 -0.12741862892E-02  0.61934087406E-03  0.25126700093E+02  0.25126700000E+02 0.  1.
     -611    1    3    3    0    0 -0.10680192766E-01 -0.28794234029E-01  0.98415793360E+01  0.98416323342E+01  0.10000000000E-01 0. -1.
      611    1    3    3    0    0  0.20815549849E-01  0.33134900553E-01  0.17665340873E+01  0.17669957245E+01  0.10000000000E-01 0.  1.
</event>
<event>
 7   0  0.6206631E-02  0.9118800E+02  0.7818608E-02  0.1180000E+00
       11   -1    0    0    0    0  0.00000000000E+00  0.00000000000E+00  0.11999999989E+02  0.12000000000E+02  0.51109989000E-03 0. -1.
     -623   -1    0    0    0    0  0.00000000000E+00  0.00000000000E+00  0.42561509872E-11  0.25126700000E+02  0.25126700000E+02 0.  1.
      622    2    1    2    0    0  0.43497103934E-02 -0.51361851667E-02  0.11895119031E+02  0.11895698043E+02  0.11717445892E+00 0.  0.
       11    1    1    2    0    0 -0.34591872533E-02  0.47400278331E-02  0.10413547435E+00  0.10430192750E+00  0.51109989000E-03 0. -1.
     -623    1    1    2    0    0 -0.89052314016E-03  0.39615733362E-03  0.74548363473E-03  0.25126700030E+02  0.25126700000E+02 0.  1.
     -611    1    3    3    0    0  0.25546516955E-01 -0.49245220441E-01  0.87577811137E+01  0.87579625342E+01  0.10000000000E-01 0. -1.
      611    1    3    3    0    0 -0.21196806562E-01  0.44109035274E-01  0.31373379175E+01  0.31377355083E+01  0.10000000000E-01 0.  1.
</event>
<event>
 7   0  0.6206631E-02  0.9118800E+02  0.7818608E-02  0.1180000E+00
       11   -1    0    0    0    0  0.00000000000E+00  0.00000000000E+00  0.11999999989E+02  0.12000000000E+02  0.51109989000E-03 0.  1.
     -623   -1    0    0    0    0  0.00000000000E+00  0.00000000000E+00  0.42561509872E-11  0.25126700000E+02  0.25126700000E+02 0. -1.
      622    2    1    2    0    0 -0.23436808083E-02 -0.54092298688E-02  0.11960565086E+02  0.11961078913E+02  0.11071055999E+00 0.  0.
       11    1    1    2    0    0 -0.11243352461E-01 -0.64353529712E-02  0.36691254754E-01  0.38914472127E-01  0.51109989000E-03 0.  1.
     -623    1    1    2    0    0  0.13587033269E-01  0.11844582840E-01  0.27436483065E-02  0.25126706615E+02  0.25126700000E+02 0. -1.
     -611    1    3    3    0    0 -0.24217009098E-01 -0.34514546327E-01  0.10273483384E+02  0.10273574770E+02  0.10000000000E-01 0.  1.
      611    1    3    3    0    0  0.21873328289E-01  0.29105316458E-01  0.16870817018E+01  0.16875041423E+01  0.10000000000E-01 0. -1.
</event>
<event>
 7   0  0.6206631E-02  0.9118800E+02  0.7818608E-02  0.1180000E+00
       11   -1    0    0    0    0  0.00000000000E+00  0.00000000000E+00  0.11999999989E+02  0.12000000000E+02  0.51109989000E-03 0. -1.
     -623   -1    0    0    0    0  0.00000000000E+00  0.00000000000E+00  0.42561509872E-11  0.25126700000E+02  0.25126700000E+02 0.  1.
      622    2    1    2    0    0  0.11844636414E+00 -0.87701410219E-01  0.11402325026E+02  0.11403616862E+02  0.87979912458E-01 0.  0.
       11    1    1    2    0    0 -0.92164185521E-01  0.68680728984E-01  0.58517742403E+00  0.59635908515E+00  0.51109989000E-03 0. -1.
     -623    1    1    2    0    0 -0.26282178614E-01  0.19020681235E-01  0.12497539184E-01  0.25126724053E+02  0.25126700000E+02 0.  1.
     -611    1    3    3    0    0  0.45718296250E-01 -0.51006649705E-01  0.26397025388E+01  0.26406100307E+01  0.10000000000E-01 0.  1.
      611    1    3    3    0    0  0.72728067886E-01 -0.36694760515E-01  0.87626224871E+01  0.87630068315E+01  0.10000000000E-01 0. -1.
</event>
<event>
 7   0  0.6206631E-02  0.9118800E+02  0.7818608E-02  0.1180000E+00
       11   -1    0    0    0    0  0.00000000000E+00  0.00000000000E+00  0.11999999989E+02  0.12000000000E+02  0.51109989000E-03 0.  1.
     -623   -1    0    0    0    0  0.00000000000E+00  0.00000000000E+00  0.42561509872E-11  0.25126700000E+02  0.25126700000E+02 0. -1.
      622    2    1    2    0    0 -0.20616012783E-01  0.33478243474E-01  0.13613327596E+01  0.13668604782E+01  0.11633946779E+00 0.  0.
       11    1    1    2    0    0  0.84029106219E-01 -0.66155490819E-01  0.10632499646E+02  0.10633037498E+02  0.51109989000E-03 0.  1.
     -623    1    1    2    0    0 -0.63413093435E-01  0.32677247345E-01  0.61675831975E-02  0.25126802024E+02  0.25126700000E+02 0. -1.
     -611    1    3    3    0    0  0.38512714005E-01  0.21969071313E-01  0.94298836386E+00  0.94408311266E+00  0.10000000000E-01 0. -1.
      611    1    3    3    0    0 -0.59128726788E-01  0.11509172161E-01  0.41834439573E+00  0.42277736554E+00  0.10000000000E-01 0.  1.
</event>
<event>
 7   0  0.6206631E-02  0.9118800E+02  0.7818608E-02  0.1180000E+00
       11   -1    0    0    0    0  0.00000000000E+00  0.00000000000E+00  0.11999999989E+02  0.12000000000E+02  0.51109989000E-03 0. -1.
     -623   -1    0    0    0    0  0.00000000000E+00  0.00000000000E+00  0.42561509872E-11  0.25126700000E+02  0.25126700000E+02 0.  1.
      622    2    1    2    0    0  0.22680073646E-01  0.25032681420E-01  0.95519580108E+01  0.95529486137E+01  0.13335799595E+00 0.  0.
       11    1    1    2    0    0  0.70269963996E-01 -0.22335490494E-01  0.24457679563E+01  0.24468792163E+01  0.51109989000E-03 0. -1.
     -623    1    1    2    0    0 -0.92950037642E-01 -0.26971909261E-02  0.22740220038E-02  0.25126872170E+02  0.25126700000E+02 0.  1.
     -611    1    3    3    0    0 -0.29021803386E-01 -0.37961007733E-02  0.60573363997E+00  0.60652280917E+00  0.10000000000E-01 0.  1.
      611    1    3    3    0    0  0.51701877033E-01  0.28828782193E-01  0.89462243708E+01  0.89464258045E+01  0.10000000000E-01 0. -1.
</event>
<event>
 7   0  0.6206631E-02  0.9118800E+02  0.7818608E-02  0.1180000E+00
       11   -1    0    0    0    0  0.00000000000E+00  0.00000000000E+00  0.11999999989E+02  0.12000000000E+02  0.51109989000E-03 0.  1.
     -623   -1    0    0    0    0  0.00000000000E+00  0.00000000000E+00  0.42561509872E-11  0.25126700000E+02  0.25126700000E+02 0. -1.
      622    2    1    2    0    0  0.48757240679E-03 -0.86042993271E-02  0.11817145023E+02  0.11817672390E+02  0.11131019078E+00 0.  0.
       11    1    1    2    0    0  0.31870598520E-03  0.91806551281E-02  0.18209530162E+00  0.18232757909E+00  0.51109989000E-03 0.  1.
     -623    1    1    2    0    0 -0.80627839199E-03 -0.57635580100E-03  0.75966493911E-03  0.25126700031E+02  0.25126700000E+02 0. -1.
     -611    1    3    3    0    0  0.28174998119E-02 -0.48626292866E-01  0.28610285646E+01  0.28614606239E+01  0.10000000000E-01 0. -1.
      611    1    3    3    0    0 -0.23299274051E-02  0.40021993539E-01  0.89561164580E+01  0.89562117660E+01  0.10000000000E-01 0.  1.
</event>
<event>
 7   0  0.6206631E-02  0.9118800E+02  0.7818608E-02  0.1180000E+00
       11   -1    0    0    0    0  0.00000000000E+00  0.00000000000E+00  0.11999999989E+02  0.12000000000E+02  0.51109989000E-03 0.  1.
     -623   -1    0    0    0    0  0.00000000000E+00  0.00000000000E+00  0.42561509872E-11  0.25126700000E+02  0.25126700000E+02 0.  1.
      622    2    1    2    0    0  0.13693591588E-02 -0.31306279561E-03  0.11998009953E+02  0.11998499530E+02  0.10837965080E+00 0.  0.
       11    1    1    2    0    0 -0.78483374869E-03 -0.11584918963E-02  0.17825542391E-03  0.15003551696E-02  0.51109989000E-03 0.  1.
     -623    1    1    2    0    0 -0.58452541012E-03  0.14715546919E-02  0.18117803561E-02  0.25126700115E+02  0.25126700000E+02 0.  1.
     -611    1    3    3    0    0 -0.32743930571E-01 -0.38646592503E-01  0.42579429715E+01  0.42582559895E+01  0.10000000000E-01 0. -1.
      611    1    3    3    0    0  0.34113289730E-01  0.38333529708E-01  0.77400669819E+01  0.77402435401E+01  0.10000000000E-01 0.  1.
</event>
<event>
 7   0  0.6206631E-02  0.9118800E+02  0.7818608E-02  0.1180000E+00
       11   -1    0    0    0    0  0.00000000000E+00  0.00000000000E+00  0.11999999989E+02  0.12000000000E+02  0.51109989000E-03 0. -1.
     -623   -1    0    0    0    0  0.00000000000E+00  0.00000000000E+00  0.42561509872E-11  0.25126700000E+02  0.25126700000E+02 0.  1.
      622    2    1    2    0    0 -0.14911192298E-03  0.29868073521E-02  0.11996021312E+02  0.11996372390E+02  0.91729293835E-01 0.  0.
       11    1    1    2    0    0  0.14004865541E-02 -0.11088101994E-02  0.31155522268E-02  0.36274938274E-02  0.51109989000E-03 0. -1.
     -623    1    1    2    0    0 -0.12513746311E-02 -0.18779971528E-02  0.86312509633E-03  0.25126700116E+02  0.25126700000E+02 0.  1.
     -611    1    3    3    0    0 -0.17642641309E-01 -0.11977527566E-01  0.11029793093E+02  0.11029818239E+02  0.10000000000E-01 0. -1.
      611    1    3    3    0    0  0.17493529386E-01  0.14964334918E-01  0.96622821917E+00  0.96655415079E+00  0.10000000000E-01 0.  1.
</event>
<event>
 7   0  0.6206631E-02  0.9118800E+02  0.7818608E-02  0.1180000E+00
       11   -1    0    0    0    0  0.00000000000E+00  0.00000000000E+00  0.11999999989E+02  0.12000000000E+02  0.51109989000E-03 0.  1.
     -623   -1    0    0    0    0  0.00000000000E+00  0.00000000000E+00  0.42561509872E-11  0.25126700000E+02  0.25126700000E+02 0. -1.
      622    2    1    2    0    0  0.74106283916E-02 -0.28803478313E-02  0.11303207527E+02  0.11303668911E+02  0.10181969684E+00 0.  0.
       11    1    1    2    0    0 -0.61002839004E-02  0.30484168132E-02  0.69629746684E+00  0.69633104904E+00  0.51109989000E-03 0.  1.
     -623    1    1    2    0    0 -0.13103444912E-02 -0.16806898192E-03  0.49499551933E-03  0.25126700040E+02  0.25126700000E+02 0. -1.
     -611    1    3    3    0    0  0.53483002392E-02 -0.13147490929E-01  0.33337536736E+00  0.33382719541E+00  0.10000000000E-01 0. -1.
      611    1    3    3    0    0  0.20623281524E-02  0.10267143097E-01  0.10969832159E+02  0.10969841716E+02  0.10000000000E-01 0.  1.
</event>
<event>
 7   0  0.6206631E-02  0.9118800E+02  0.7818608E-02  0.1180000E+00
       11   -1    0    0    0    0  0.00000000000E+00  0.00000000000E+00  0.11999999989E+02  0.12000000000E+02  0.51109989000E-03 0.  1.
     -623   -1    0    0    0    0  0.00000000000E+00  0.00000000000E+00  0.42561509872E-11  0.25126700000E+02  0.25126700000E+02 0.  1.
      622    2    1    2    0    0 -0.18418886024E-02  0.78971928564E-02  0.11934007846E+02  0.11934332674E+02  0.87677568316E-01 0.  0.
       11    1    1    2    0    0 -0.33964848420E-02  0.89646227290E-02  0.64955510718E-01  0.65661100857E-01  0.51109989000E-03 0.  1.
     -623    1    1    2    0    0  0.52383734444E-02 -0.16861815585E-01  0.10366328006E-02  0.25126706225E+02  0.25126700000E+02 0.  1.
     -611    1    3    3    0    0  0.38557377131E-01  0.20130959918E-01  0.62348157122E+01  0.62349754524E+01  0.10000000000E-01 0.  1.
      611    1    3    3    0    0 -0.40399265733E-01 -0.12233767062E-01  0.56991921334E+01  0.56993572216E+01  0.10000000000E-01 0. -1.
</event>
<event>
 7   0  0.6206631E-02  0.9118800E+02  0.7818608E-02  0.1180000E+00
       11   -1    0    0    0    0  0.00000000000E+00  0.00000000000E+00  0.11999999989E+02  0.12000000000E+02  0.51109989000E-03 0. -1.
     -623   -1    0    0    0    0  0.00000000000E+00  0.00000000000E+00  0.42561509872E-11  0.25126700000E+02  0.25126700000E+02 0. -1.
      622    2    1    2    0    0  0.16331260969E-01 -0.18860750580E-01  0.11329244012E+02  0.11329675496E+02  0.95679315175E-01 0.  0.
       11    1    1    2    0    0 -0.16573782613E-01  0.14592029407E-01  0.66996011574E+00  0.67032412719E+00  0.51109989000E-03 0. -1.
     -623    1    1    2    0    0  0.24252164415E-03  0.42687211731E-02  0.79586130845E-03  0.25126700376E+02  0.25126700000E+02 0. -1.
     -611    1    3    3    0    0 -0.13178936374E-01 -0.26508822035E-02  0.37391227927E+00  0.37428746189E+00  0.10000000000E-01 0. -1.
      611    1    3    3    0    0  0.29510197343E-01 -0.16209868377E-01  0.10955331733E+02  0.10955388035E+02  0.10000000000E-01 0. -1.
</event>
<event>
 7   0  0.6206631E-02  0.9118800E+02  0.7818608E-02  0.1180000E+00
       11   -1    0    0    0    0  0.00000000000E+00  0.00000000000E+00  0.11999999989E+02  0.12000000000E+02  0.51109989000E-03 0. -1.
     -623   -1    0    0    0    0  0.00000000000E+00  0.00000000000E+00  0.42561509872E-11  0.25126700000E+02  0.25126700000E+02 0.  1.
      622    2    1    2    0    0  0.28895297932E-01 -0.29106101592E-01  0.88703479271E+00  0.89619405040E+00  0.12104110506E+00 0.  0.
       11    1    1    2    0    0 -0.89586050786E-01 -0.41007367067E-01  0.11103195791E+02  0.11103632933E+02  0.51109989000E-03 0. -1.
     -623    1    1    2    0    0  0.60690752853E-01  0.70113468660E-01  0.97694049898E-02  0.25126873017E+02  0.25126700000E+02 0.  1.
     -611    1    3    3    0    0 -0.82254182552E-02 -0.23175428329E-01  0.80464842397E+00  0.80508623400E+00  0.10000000000E-01 0.  1.
      611    1    3    3    0    0  0.37120716188E-01 -0.59306732629E-02  0.82386368735E-01  0.91107816399E-01  0.10000000000E-01 0. -1.
</event>
<event>
 7   0  0.6206631E-02  0.9118800E+02  0.7818608E-02  0.1180000E+00
       11   -1    0    0    0    0  0.00000000000E+00  0.00000000000E+00  0.11999999989E+02  0.12000000000E+02  0.51109989000E-03 0. -1.
     -623   -1    0    0    0    0  0.00000000000E+00  0.00000000000E+00  0.42561509872E-11  0.25126700000E+02  0.25126700000E+02 0. -1.
      622    2    1    2    0    0 -0.43436575413E-02 -0.11508675532E-02  0.11943866702E+02  0.11944277037E+02  0.98903791451E-01 0.  0.
       11    1    1    2    0    0  0.62363588138E-03  0.12200685450E-02  0.55703489775E-01  0.55722683758E-01  0.51109989000E-03 0. -1.
     -623    1    1    2    0    0  0.37200216600E-02 -0.69200991767E-04  0.42979768369E-03  0.25126700279E+02  0.25126700000E+02 0. -1.
     -611    1    3    3    0    0  0.29084870396E-01 -0.53946541123E-02  0.13854870535E+01  0.13858388822E+01  0.10000000000E-01 0.  1.
      611    1    3    3    0    0 -0.33428527938E-01  0.42437865591E-02  0.10558379648E+02  0.10558438155E+02  0.10000000000E-01 0. -1.
</event>
<event>
 7   0  0.6206631E-02  0.9118800E+02  0.7818608E-02  0.1180000E+00
       11   -1    0    0    0    0  0.00000000000E+00  0.00000000000E+00  0.11999999989E+02  0.12000000000E+02  0.51109989000E-03 0. -1.
     -623   -1    0    0    0    0  0.00000000000E+00  0.00000000000E+00  0.42561509872E-11  0.25126700000E+02  0.25126700000E+02 0. -1.
      622    2    1    2    0    0  0.23383406306E-01  0.95436274902E-03  0.11261824490E+02  0.11262436050E+02  0.11500973340E+00 0.  0.
       11    1    1    2    0    0 -0.23172015417E-01  0.42577132672E-02  0.73718682930E+00  0.73756338910E+00  0.51109989000E-03 0. -1.
     -623    1    1    2    0    0 -0.21139088849E-03 -0.52120760163E-02  0.98866967730E-03  0.25126700561E+02  0.25126700000E+02 0. -1.
     -611    1    3    3    0    0  0.61705884861E-01  0.28918937975E-01  0.66708280647E+01  0.66711836273E+01  0.10000000000E-01 0.  1.
      611    1    3    3    0    0 -0.38322478556E-01 -0.27964575226E-01  0.45909964255E+01  0.45912524226E+01  0.10000000000E-01 0. -1.
</event>
<event>
 7   0  0.6206631E-02  0.9118800E+02  0.7818608E-02  0.1180000E+00
       11   -1    0    0    0    0  0.00000000000E+00  0.00000000000E+00  0.11999999989E+02  0.12000000000E+02  0.51109989000E-03 0.  1.
     -623   -1    0    0    0    0  0.00000000000E+00  0.00000000000E+00  0.42561509872E-11  0.25126700000E+02  0.25126700000E+02 0. -1.
      622    2    1    2    0    0  0.15867810032E-01  0.24922946236E-01  0.10888422398E+02  0.10888971056E+02  0.10523973919E+00 0.  0.
       11    1    1    2    0    0 -0.17261974399E-01 -0.24687834091E-01  0.11106203042E+01  0.11110288864E+01  0.51109989000E-03 0.  1.
     -623    1    1    2    0    0  0.13941643670E-02 -0.23511214489E-03  0.95728735458E-03  0.25126700058E+02  0.25126700000E+02 0. -1.
     -611    1    3    3    0    0 -0.11618463736E-01  0.35209043813E-01  0.14816418815E+01  0.14821394437E+01  0.10000000000E-01 0.  1.
      611    1    3    3    0    0  0.27486273768E-01 -0.10286097577E-01  0.94067805160E+01  0.94068316119E+01  0.10000000000E-01 0. -1.
</event>
<event>
 7   0  0.6206631E-02  0.9118800E+02  0.7818608E-02  0.1180000E+00
       11   -1    0    0    0    0  0.00000000000E+00  0.00000000000E+00  0.11999999989E+02  0.12000000000E+02  0.51109989000E-03 0.  1.
     -623   -1    0    0    0    0  0.00000000000E+00  0.00000000000E+00  0.42561509872E-11  0.25126700000E+02  0.25126700000E+02 0.  1.
      622    2    1    2    0    0 -0.14340834016E-01 -0.13967106000E-01  0.10158037605E+02  0.10158491914E+02  0.93964141637E-01 0.  0.
       11    1    1    2    0    0 -0.43531370161E-01 -0.13487145864E-01  0.18408623262E+01  0.18414264168E+01  0.51109989000E-03 0.  1.
     -623    1    1    2    0    0  0.57872204176E-01  0.27454251864E-01  0.11000583146E-02  0.25126781669E+02  0.25126700000E+02 0.  1.
     -611    1    3    3    0    0 -0.41604037654E-01  0.12376461625E-01  0.78096848298E+01  0.78098118552E+01  0.10000000000E-01 0.  1.
      611    1    3    3    0    0  0.27263203638E-01 -0.26343567625E-01  0.23483527748E+01  0.23486800592E+01  0.10000000000E-01 0. -1.
</event>
<event>
 7   0  0.6206631E-02  0.9118800E+02  0.7818608E-02  0.1180000E+00
       11   -1    0    0    0    0  0.00000000000E+00  0.00000000000E+00  0.11999999989E+02  0.12000000000E+02  0.51109989000E-03 0.  1.
     -623   -1    0    0    0    0  0.00000000000E+00  0.00000000000E+00  0.42561509872E-11  0.25126700000E+02  0.25126700000E+02 0. -1.
      622    2    1    2    0    0  0.71051694523E-03  0.80613273141E-02  0.11437283852E+02  0.11437619442E+02  0.87241707971E-01 0.  0.
       11    1    1    2    0    0  0.11510747517E-03 -0.72517203698E-02  0.56233352767E+00  0.56238052800E+00  0.51109989000E-03 0.  1.
     -623    1    1    2    0    0 -0.82562442040E-03 -0.80960694434E-03  0.38260968880E-03  0.25126700030E+02  0.25126700000E+02 0. -1.
     -611    1    3    3    0    0  0.20156898955E-02  0.10768552568E-01  0.11270131339E+02  0.11270141100E+02  0.10000000000E-01 0.  1.
      611    1    3    3    0    0 -0.13051729502E-02 -0.27072252538E-02  0.16715251315E+00  0.16747834247E+00  0.10000000000E-01 0.  1.
</event>
<event>
 7   0  0.6206631E-02  0.9118800E+02  0.7818608E-02  0.1180000E+00
       11   -1    0    0    0    0  0.00000000000E+00  0.00000000000E+00  0.11999999989E+02  0.12000000000E+02  0.51109989000E-03 0.  1.
     -623   -1    0    0    0    0  0.00000000000E+00  0.00000000000E+00  0.42561509872E-11  0.25126700000E+02  0.25126700000E+02 0. -1.
      622    2    1    2    0    0  0.29059917522E-01  0.13521947268E-01  0.71247828499E+01  0.71253618080E+01  0.84987732392E-01 0.  0.
       11    1    1    2    0    0 -0.28254873226E-01 -0.11252252287E-01  0.48745431660E+01  0.48746380676E+01  0.51109989000E-03 0.  1.
     -623    1    1    2    0    0 -0.80504429641E-03 -0.22696949809E-02  0.67397319063E-03  0.25126700124E+02  0.25126700000E+02 0. -1.
     -611    1    3    3    0    0 -0.19428090003E-01 -0.16991262839E-01  0.35304631945E+01  0.35305716990E+01  0.10000000000E-01 0.  1.
      611    1    3    3    0    0  0.48488007525E-01  0.30513210107E-01  0.35943196554E+01  0.35947901090E+01  0.10000000000E-01 0. -1.
</event>
<event>
 7   0  0.6206631E-02  0.9118800E+02  0.7818608E-02  0.1180000E+00
       11   -1    0    0    0    0  0.00000000000E+00  0.00000000000E+00  0.11999999989E+02  0.12000000000E+02  0.51109989000E-03 0.  1.
     -623   -1    0    0    0    0  0.00000000000E+00  0.00000000000E+00  0.42561509872E-11  0.25126700000E+02  0.25126700000E+02 0.  1.
      622    2    1    2    0    0 -0.13941215137E-01 -0.21938336413E-02  0.68048879525E+01  0.68053227023E+01  0.75616572822E-01 0.  0.
       11    1    1    2    0    0  0.13728781585E-01  0.27500572181E-02  0.51946583918E+01  0.51946772865E+01  0.51109989000E-03 0.  1.
     -623    1    1    2    0    0  0.21243355142E-03 -0.55622357673E-03  0.45364478741E-03  0.25126700011E+02  0.25126700000E+02 0.  1.
     -611    1    3    3    0    0 -0.39540027714E-01 -0.13899276254E-01  0.28949749839E+01  0.28952956259E+01  0.10000000000E-01 0.  1.
      611    1    3    3    0    0  0.25598812578E-01  0.11705442613E-01  0.39099129686E+01  0.39100270764E+01  0.10000000000E-01 0. -1.
</event>
<event>
 7   0  0.6206631E-02  0.9118800E+02  0.7818608E-02  0.1180000E+00
       11   -1    0    0    0    0  0.00000000000E+00  0.00000000000E+00  0.11999999989E+02  0.12000000000E+02  0.51109989000E-03 0.  1.
     -623   -1    0    0    0    0  0.00000000000E+00  0.00000000000E+00  0.42561509872E-11  0.25126700000E+02  0.25126700000E+02 0.  1.
      622    2    1    2    0    0  0.21606233037E-01  0.10919502060E-01  0.91227242590E+01  0.91243025817E+01  0.16796913710E+00 0.  0.
       11    1    1    2    0    0  0.60062595555E-01 -0.10697413950E+00  0.28727622390E+01  0.28753806922E+01  0.51109989000E-03 0.  1.
     -623    1    1    2    0    0 -0.81668828592E-01  0.96054637443E-01  0.45134910304E-02  0.25127016726E+02  0.25126700000E+02 0.  1.
     -611    1    3    3    0    0 -0.18690577316E-01  0.83220037542E-01  0.49617578784E+01  0.49625009981E+01  0.10000000000E-01 0. -1.
      611    1    3    3    0    0  0.40296810353E-01 -0.72300535482E-01  0.41609663807E+01  0.41618015836E+01  0.10000000000E-01 0.  1.
</event>
<event>
 7   0  0.6206631E-02  0.9118800E+02  0.7818608E-02  0.1180000E+00
       11   -1    0    0    0    0  0.00000000000E+00  0.00000000000E+00  0.11999999989E+02  0.12000000000E+02  0.51109989000E-03 0.  1.
     -623   -1    0    0    0    0  0.00000000000E+00  0.00000000000E+00  0.42561509872E-11  0.25126700000E+02  0.25126700000E+02 0.  1.
      622    2    1    2    0    0  0.22496553647E-01 -0.91883318430E-01  0.44212865177E+01  0.44232271700E+01  0.90639320487E-01 0.  0.
       11    1    1    2    0    0  0.32257064036E-02  0.61109083625E-01  0.75764935794E+01  0.75767407205E+01  0.51109989000E-03 0.  1.
     -623    1    1    2    0    0 -0.25722260051E-01  0.30774234805E-01  0.22198920264E-02  0.25126732110E+02  0.25126700000E+02 0.  1.
     -611    1    3    3    0    0  0.30681678975E-01 -0.75308225461E-01  0.18072923973E+01  0.18091485576E+01  0.10000000000E-01 0.  1.
      611    1    3    3    0    0 -0.81851253277E-02 -0.16575092969E-01  0.26139941204E+01  0.26140786123E+01  0.10000000000E-01 0. -1.
</event>
<event>
 7   0  0.6206631E-02  0.9118800E+02  0.7818608E-02  0.1180000E+00
       11   -1    0    0    0    0  0.00000000000E+00  0.00000000000E+00  0.11999999989E+02  0.12000000000E+02  0.51109989000E-03 0.  1.
     -623   -1    0    0    0    0  0.00000000000E+00  0.00000000000E+00  0.42561509872E-11  0.25126700000E+02  0.25126700000E+02 0.  1.
      622    2    1    2    0    0 -0.37799093436E-01  0.62956798288E-01  0.99491269947E+01  0.99501096834E+01  0.11900598972E+00 0.  0.
       11    1    1    2    0    0  0.41631176220E-01 -0.58058845578E-01  0.20486440647E+01  0.20498894481E+01  0.51109989000E-03 0.  1.
     -623    1    1    2    0    0 -0.38320827843E-02 -0.48979527099E-02  0.22289297027E-02  0.25126700868E+02  0.25126700000E+02 0.  1.
     -611    1    3    3    0    0 -0.76989076365E-01  0.48321055630E-01  0.53490170891E+01  0.53497986936E+01  0.10000000000E-01 0.  1.
      611    1    3    3    0    0  0.39189982929E-01  0.14635742658E-01  0.46001099056E+01  0.46003109899E+01  0.10000000000E-01 0. -1.
</event>
<event>
 7   0  0.6206631E-02  0.9118800E+02  0.7818608E-02  0.1180000E+00
       11   -1    0    0    0    0  0.00000000000E+00  0.00000000000E+00  0.11999999989E+02  0.12000000000E+02  0.51109989000E-03 0.  1.
     -623   -1    0    0    0    0  0.00000000000E+00  0.00000000000E+00  0.42561509872E-11  0.25126700000E+02  0.25126700000E+02 0.  1.
      622    2    1    2    0    0  0.17706749559E-01 -0.25413087946E-02  0.70843474616E+01  0.70846543123E+01  0.63464801610E-01 0.  0.
       11    1    1    2    0    0 -0.16978329737E-01  0.14032430421E-02  0.49153160992E+01  0.49153456490E+01  0.51109989000E-03 0.  1.
     -623    1    1    2    0    0 -0.72841982158E-03  0.11380657526E-02  0.33642820572E-03  0.25126700039E+02  0.25126700000E+02 0.  1.
     -611    1    3    3    0    0 -0.16544994723E-01  0.15307213127E-01  0.20387671445E+01  0.20389162604E+01  0.10000000000E-01 0.  1.
      611    1    3    3    0    0  0.34251744282E-01 -0.17848521921E-01  0.50455803171E+01  0.50457380519E+01  0.10000000000E-01 0. -1.
</event>
<event>
 7   0  0.6206631E-02  0.9118800E+02  0.7818608E-02  0.1180000E+00
       11   -1    0    0    0    0  0.00000000000E+00  0.00000000000E+00  0.11999999989E+02  0.12000000000E+02  0.51109989000E-03 0.  1.
     -623   -1    0    0    0    0  0.00000000000E+00  0.00000000000E+00  0.42561509872E-11  0.25126700000E+02  0.25126700000E+02 0. -1.
      622    2    1    2    0    0 -0.10322149091E-01 -0.49737883737E-03  0.11870338094E+02  0.11870726158E+02  0.95426717719E-01 0.  0.
       11    1    1    2    0    0  0.12491487604E-01 -0.23730428259E-01  0.12644839811E+00  0.12926186250E+00  0.51109989000E-03 0.  1.
     -623    1    1    2    0    0 -0.21693385130E-02  0.24227807096E-01  0.32134971838E-02  0.25126711980E+02  0.25126700000E+02 0. -1.
     -611    1    3    3    0    0 -0.47260006519E-01  0.92507385183E-02  0.87493768965E+01  0.87495151387E+01  0.10000000000E-01 0.  1.
      611    1    3    3    0    0  0.36937857428E-01 -0.97481173557E-02  0.31209611973E+01  0.31212110192E+01  0.10000000000E-01 0. -1.
</event>
<event>
 7   0  0.6206631E-02  0.9118800E+02  0.7818608E-02  0.1180000E+00
       11   -1    0    0    0    0  0.00000000000E+00  0.00000000000E+00  0.11999999989E+02  0.12000000000E+02  0.51109989000E-03 0.  1.
     -623   -1    0    0    0    0  0.00000000000E+00  0.00000000000E+00  0.42561509872E-11  0.25126700000E+02  0.25126700000E+02 0.  1.
      622    2    1    2    0    0  0.62094959902E-02 -0.57795921761E-02  0.11965934005E+02  0.11966326039E+02  0.96489777176E-01 0.  0.
       11    1    1    2    0    0 -0.64541717325E-02  0.93276401170E-02  0.31701558441E-01  0.33673598466E-01  0.51109989000E-03 0.  1.
     -623    1    1    2    0    0  0.24467574224E-03 -0.35480479409E-02  0.23644252079E-02  0.25126700363E+02  0.25126700000E+02 0.  1.
     -611    1    3    3    0    0 -0.12520704184E-01  0.19713533190E-01  0.10442120211E+02  0.10442151115E+02  0.10000000000E-01 0.  1.
      611    1    3    3    0    0  0.18730200174E-01 -0.25493125366E-01  0.15238137942E+01  0.15241749241E+01  0.10000000000E-01 0. -1.
</event>
<event>
 7   0  0.6206631E-02  0.9118800E+02  0.7818608E-02  0.1180000E+00
       11   -1    0    0    0    0  0.00000000000E+00  0.00000000000E+00  0.11999999989E+02  0.12000000000E+02  0.51109989000E-03 0.  1.
     -623   -1    0    0    0    0  0.00000000000E+00  0.00000000000E+00  0.42561509872E-11  0.25126700000E+02  0.25126700000E+02 0. -1.
      622    2    1    2    0    0 -0.11508382720E-01 -0.12473822363E+00  0.10878767717E+02  0.10880035540E+02  0.10906071304E+00 0.  0.
       11    1    1    2    0    0  0.60639222553E-02  0.13994987083E+00  0.11111621117E+01  0.11199572479E+01  0.51109989000E-03 0.  1.
     -623    1    1    2    0    0  0.54444604645E-02 -0.15211647193E-01  0.10070160470E-01  0.25126707212E+02  0.25126700000E+02 0. -1.
     -611    1    3    3    0    0 -0.14190179645E-01 -0.52770882022E-01  0.15677522150E+01  0.15687361585E+01  0.10000000000E-01 0. -1.
      611    1    3    3    0    0  0.26817969253E-02 -0.71967341610E-01  0.93110155020E+01  0.93112993813E+01  0.10000000000E-01 0.  1.
</event>
<event>
 7   0  0.6206631E-02  0.9118800E+02  0.7818608E-02  0.1180000E+00
       11   -1    0    0    0    0  0.00000000000E+00  0.00000000000E+00  0.11999999989E+02  0.12000000000E+02  0.51109989000E-03 0. -1.
     -623   -1    0    0    0    0  0.00000000000E+00  0.00000000000E+00  0.42561509872E-11  0.25126700000E+02  0.25126700000E+02 0. -1.
      622    2    1    2    0    0 -0.75373399559E-02 -0.20459814670E-01  0.11970005273E+02  0.11970218091E+02  0.67966803767E-01 0.  0.
       11    1    1    2    0    0  0.45631087564E-02 -0.27777865485E-01  0.95397975124E-02  0.29727104335E-01  0.51109989000E-03 0. -1.
     -623    1    1    2    0    0  0.29742311996E-02  0.48237680155E-01  0.20454918247E-01  0.25126754805E+02  0.25126700000E+02 0. -1.
     -611    1    3    3    0    0  0.14188497035E-01 -0.36710824776E-01  0.56025369930E+01  0.56026841563E+01  0.10000000000E-01 0.  1.
      611    1    3    3    0    0 -0.21725836991E-01  0.16251010106E-01  0.63674682803E+01  0.63675339346E+01  0.10000000000E-01 0. -1.
</event>
<event>
 7   0  0.6206631E-02  0.9118800E+02  0.7818608E-02  0.1180000E+00
       11   -1    0    0    0    0  0.00000000000E+00  0.00000000000E+00  0.11999999989E+02  0.12000000000E+02  0.51109989000E-03 0.  1.
     -623   -1    0    0    0    0  0.00000000000E+00  0.00000000000E+00  0.42561509872E-11  0.25126700000E+02  0.25126700000E+02 0.  1.
      622    2    1    2    0    0  0.11446977268E-01  0.57987458633E-02  0.11980182154E+02  0.11980564483E+02  0.94848417563E-01 0.  0.
       11    1    1    2    0    0 -0.58805212891E-02  0.12801692984E-02  0.18471453745E-01  0.19433867106E-01  0.51109989000E-03 0.  1.
     -623    1    1    2    0    0 -0.55664559784E-02 -0.70789151618E-02  0.13463810010E-02  0.25126701650E+02  0.25126700000E+02 0.  1.
     -611    1    3    3    0    0 -0.35498748771E-01  0.20285307649E-01  0.39090006135E+01  0.39092272192E+01  0.10000000000E-01 0. -1.
      611    1    3    3    0    0  0.46945726038E-01 -0.14486561786E-01  0.80711815409E+01  0.80713372639E+01  0.10000000000E-01 0.  1.
</event>
<event>
 7   0  0.6206631E-02  0.9118800E+02  0.7818608E-02  0.1180000E+00
       11   -1    0    0    0    0  0.00000000000E+00  0.00000000000E+00  0.11999999989E+02  0.12000000000E+02  0.51109989000E-03 0. -1.
     -623   -1    0    0    0    0  0.00000000000E+00  0.00000000000E+00  0.42561509872E-11  0.25126700000E+02  0.25126700000E+02 0.  1.
      622    2    1    2    0    0 -0.39933550444E-02  0.29199289767E-02  0.11969595177E+02  0.11969863135E+02  0.79939288479E-01 0.  0.
       11    1    1    2    0    0  0.64869319030E-02  0.35776919821E-02  0.29206667591E-01  0.30135872649E-01  0.51109989000E-03 0. -1.
     -623    1    1    2    0    0 -0.24935768586E-02 -0.64976209588E-02  0.11981443215E-02  0.25126700992E+02  0.25126700000E+02 0.  1.
     -611    1    3    3    0    0 -0.27394932208E-01  0.23167813312E-01  0.92266857242E+01  0.92267608987E+01  0.10000000000E-01 0. -1.
      611    1    3    3    0    0  0.23401577163E-01 -0.20247884335E-01  0.27429094530E+01  0.27431022362E+01  0.10000000000E-01 0.  1.
</event>
<event>
 7   0  0.6206631E-02  0.9118800E+02  0.7818608E-02  0.1180000E+00
       11   -1    0    0    0    0  0.00000000000E+00  0.00000000000E+00  0.11999999989E+02  0.12000000000E+02  0.51109989000E-03 0. -1.
     -623   -1    0    0    0    0  0.00000000000E+00  0.00000000000E+00  0.42561509872E-11  0.25126700000E+02  0.25126700000E+02 0. -1.
      622    2    1    2    0    0 -0.12502824879E-02 -0.32248761431E-01  0.11311533783E+02  0.11312007219E+02  0.98332352707E-01 0.  0.
       11    1    1    2    0    0  0.18649917343E-02  0.29358028816E-01  0.68736319469E+00  0.68799258331E+00  0.51109989000E-03 0. -1.
     -623    1    1    2    0    0 -0.61470924634E-03  0.28907326150E-02  0.11030116922E-02  0.25126700198E+02  0.25126700000E+02 0. -1.
     -611    1    3    3    0    0  0.40460319911E-01 -0.39403084887E-01  0.76551588349E+01  0.76553736961E+01  0.10000000000E-01 0.  1.
      611    1    3    3    0    0 -0.41710602399E-01  0.71543234561E-02  0.36563749479E+01  0.36566335225E+01  0.10000000000E-01 0. -1.
</event>
<event>
 7   0  0.6206631E-02  0.9118800E+02  0.7818608E-02  0.1180000E+00
       11   -1    0    0    0    0  0.00000000000E+00  0.00000000000E+00  0.11999999989E+02  0.12000000000E+02  0.51109989000E-03 0. -1.
     -623   -1    0    0    0    0  0.00000000000E+00  0.00000000000E+00  0.42561509872E-11  0.25126700000E+02  0.25126700000E+02 0.  1.
      622    2    1    2    0    0 -0.40927501605E-02  0.83383405962E-02  0.11925911288E+02  0.11926515155E+02  0.11965535019E+00 0.  0.
       11    1    1    2    0    0  0.90355824954E-02 -0.61888238596E-02  0.72661730473E-01  0.73484226812E-01  0.51109989000E-03 0. -1.
     -623    1    1    2    0    0 -0.49428323349E-02 -0.21495167366E-02  0.14269705932E-02  0.25126700619E+02  0.25126700000E+02 0.  1.
     -611    1    3    3    0    0 -0.13132707186E-01  0.61593076249E-01  0.72747211673E+01  0.72750006349E+01  0.10000000000E-01 0. -1.
      611    1    3    3    0    0  0.90399570255E-02 -0.53254735653E-01  0.46511901207E+01  0.46515145197E+01  0.10000000000E-01 0.  1.
</event>
<event>
 7   0  0.6206631E-02  0.9118800E+02  0.7818608E-02  0.1180000E+00
       11   -1    0    0    0    0  0.00000000000E+00  0.00000000000E+00  0.11999999989E+02  0.12000000000E+02  0.51109989000E-03 0.  1.
     -623   -1    0    0    0    0  0.00000000000E+00  0.00000000000E+00  0.42561509872E-11  0.25126700000E+02  0.25126700000E+02 0. -1.
      622    2    1    2    0    0  0.64519648301E-01 -0.40705533128E-01  0.11483302437E+02  0.11483938065E+02  0.93695730376E-01 0.  0.
       11    1    1    2    0    0 -0.55076892527E-01  0.37697451800E-01  0.51172509458E+00  0.51605948844E+00  0.51109989000E-03 0.  1.
     -623    1    1    2    0    0 -0.94427557735E-02  0.30080813278E-02  0.49724571186E-02  0.25126702446E+02  0.25126700000E+02 0. -1.
     -611    1    3    3    0    0  0.72418808678E-01 -0.61918122090E-01  0.87975272356E+01  0.87980488632E+01  0.10000000000E-01 0.  1.
      611    1    3    3    0    0 -0.78991603770E-02  0.21212588962E-01  0.26857752018E+01  0.26858892019E+01  0.10000000000E-01 0. -1.
</event>
<event>
 7   0  0.6206631E-02  0.9118800E+02  0.7818608E-02  0.1180000E+00
       11   -1    0    0    0    0  0.00000000000E+00  0.00000000000E+00  0.11999999989E+02  0.12000000000E+02  0.51109989000E-03 0. -1.
     -623   -1    0    0    0    0  0.00000000000E+00  0.00000000000E+00  0.42561509872E-11  0.25126700000E+02  0.25126700000E+02 0.  1.
      622    2    1    2    0    0  0.15495037051E-02  0.57010128845E-03  0.11996707536E+02  0.11997155503E+02  0.10366159723E+00 0.  0.
       11    1    1    2    0    0  0.15537003905E-02  0.75150326199E-03  0.22022206308E-02  0.28442469837E-02  0.51109989000E-03 0. -1.
     -623    1    1    2    0    0 -0.31032040956E-02 -0.13216045504E-02  0.10902322528E-02  0.25126700250E+02  0.25126700000E+02 0.  1.
     -611    1    3    3    0    0  0.37657458768E-01 -0.34197929442E-01  0.53348577840E+01  0.53351096669E+01  0.10000000000E-01 0.  1.
      611    1    3    3    0    0 -0.36107955063E-01  0.34768030731E-01  0.66618497522E+01  0.66620458361E+01  0.10000000000E-01 0. -1.
</event>
<event>
 7   0  0.6206631E-02  0.9118800E+02  0.7818608E-02  0.1180000E+00
       11   -1    0    0    0    0  0.00000000000E+00  0.00000000000E+00  0.11999999989E+02  0.12000000000E+02  0.51109989000E-03 0.  1.
     -623   -1    0    0    0    0  0.00000000000E+00  0.00000000000E+00  0.42561509872E-11  0.25126700000E+02  0.25126700000E+02 0. -1.
      622    2    1    2    0    0  0.15570920174E-01 -0.10493452858E-01  0.11753626662E+02  0.11754057596E+02  0.98882223161E-01 0.  0.
       11    1    1    2    0    0 -0.17830165011E-01  0.17404011427E-02  0.24528687247E+00  0.24594075467E+00  0.51109989000E-03 0.  1.
     -623    1    1    2    0    0  0.22592448363E-02  0.87530517153E-02  0.10864549630E-02  0.25126701650E+02  0.25126700000E+02 0. -1.
     -611    1    3    3    0    0 -0.12299124028E-01 -0.22245714904E-01  0.10470180310E+02  0.10470215942E+02  0.10000000000E-01 0.  1.
      611    1    3    3    0    0  0.27870044203E-01  0.11752262046E-01  0.12834463515E+01  0.12838416539E+01  0.10000000000E-01 0. -1.
</event>
<event>
 7   0  0.6206631E-02  0.9118800E+02  0.7818608E-02  0.1180000E+00
       11   -1    0    0    0    0  0.00000000000E+00  0.00000000000E+00  0.11999999989E+02  0.12000000000E+02  0.51109989000E-03 0. -1.
     -623   -1    0    0    0    0  0.00000000000E+00  0.00000000000E+00  0.42561509872E-11  0.25126700000E+02  0.25126700000E+02 0. -1.
      622    2    1    2    0    0  0.40721044801E-02 -0.10129655421E-01  0.11418130714E+02  0.11418609067E+02  0.10394632994E+00 0.  0.
       11    1    1    2    0    0 -0.70825222269E-02  0.50928522652E-02  0.58132456753E+00  0.58139024184E+00  0.51109989000E-03 0. -1.
     -623    1    1    2    0    0  0.30104177468E-02  0.50368031557E-02  0.54470786916E-03  0.25126700691E+02  0.25126700000E+02 0. -1.
     -611    1    3    3    0    0 -0.32631700501E-01  0.29144666564E-01  0.69296023160E+01  0.69297476503E+01  0.10000000000E-01 0.  1.
      611    1    3    3    0    0  0.36703804981E-01 -0.39274321985E-01  0.44885283977E+01  0.44888614168E+01  0.10000000000E-01 0. -1.
</event>
<event>
 7   0  0.6206631E-02  0.9118800E+02  0.7818608E-02  0.1180000E+00
       11   -1    0    0    0    0  0.00000000000E+00  0.00000000000E+00  0.11999999989E+02  0.12000000000E+02  0.51109989000E-03 0.  1.
     -623   -1    0    0    0    0  0.00000000000E+00  0.00000000000E+00  0.42561509872E-11  0.25126700000E+02  0.25126700000E+02 0. -1.
      622    2    1    2    0    0 -0.52439063875E-02 -0.74664867006E-02  0.11980888659E+02  0.11981278248E+02  0.96188200771E-01 0.  0.
       11    1    1    2    0    0  0.25373126848E-02  0.58428796060E-02  0.17597057337E-01  0.18721507626E-01  0.51109989000E-03 0.  1.
     -623    1    1    2    0    0  0.27065937027E-02  0.16236070946E-02  0.15142731161E-02  0.25126700244E+02  0.25126700000E+02 0. -1.
     -611    1    3    3    0    0 -0.34342194987E-01 -0.17000004554E-01  0.23350960663E+01  0.23354318712E+01  0.10000000000E-01 0. -1.
      611    1    3    3    0    0  0.29098288600E-01  0.95335178532E-02  0.96457925924E+01  0.96458463772E+01  0.10000000000E-01 0.  1.
</event>
<event>
 7   0  0.6206631E-02  0.9118800E+02  0.7818608E-02  0.1180000E+00
       11   -1    0    0    0    0  0.00000000000E+00  0.00000000000E+00  0.11999999989E+02  0.12000000000E+02  0.51109989000E-03 0. -1.
     -623   -1    0    0    0    0  0.00000000000E+00  0.00000000000E+00  0.42561509872E-11  0.25126700000E+02  0.25126700000E+02 0. -1.
      622    2    1    2    0    0 -0.57622113340E-02  0.12017663087E-01  0.11941360833E+02  0.11941831251E+02  0.10515443092E+00 0.  0.
       11    1    1    2    0    0  0.25662957052E-01 -0.50130966320E-02  0.51946988444E-01  0.58159000455E-01  0.51109989000E-03 0. -1.
     -623    1    1    2    0    0 -0.19900745718E-01 -0.70045664545E-02  0.66921674239E-02  0.25126709748E+02  0.25126700000E+02 0. -1.
     -611    1    3    3    0    0  0.16103058250E-01  0.17474079898E-01  0.11252212948E+02  0.11252242482E+02  0.10000000000E-01 0. -1.
      611    1    3    3    0    0 -0.21865269584E-01 -0.54564168112E-02  0.68914788567E+00  0.68958876936E+00  0.10000000000E-01 0. -1.
</event>
<event>
 7   0  0.6206631E-02  0.9118800E+02  0.7818608E-02  0.1180000E+00
       11   -1    0    0    0    0  0.00000000000E+00  0.00000000000E+00  0.11999999989E+02  0.12000000000E+02  0.51109989000E-03 0.  1.
     -623   -1    0    0    0    0  0.00000000000E+00  0.00000000000E+00  0.42561509872E-11  0.25126700000E+02  0.25126700000E+02 0.  1.
      622    2    1    2    0    0 -0.47709428117E-01 -0.72773541780E-02  0.11445514633E+02  0.11446235607E+02  0.11905973330E+00 0.  0.
       11    1    1    2    0    0  0.16154794841E-01  0.27384879174E-01  0.55282268216E+00  0.55373647896E+00  0.51109989000E-03 0.  1.
     -623    1    1    2    0    0  0.31554633276E-01 -0.20107524996E-01  0.16626744387E-02  0.25126727914E+02  0.25126700000E+02 0.  1.
     -611    1    3    3    0    0 -0.71303960425E-01  0.26233590656E-01  0.92385219884E+01  0.92388398074E+01  0.10000000000E-01 0.  1.
      611    1    3    3    0    0  0.23594532308E-01 -0.33510944834E-01  0.22069926441E+01  0.22073957997E+01  0.10000000000E-01 0. -1.
</event>
<event>
 7   0  0.6206631E-02  0.9118800E+02  0.7818608E-02  0.1180000E+00
       11   -1    0    0    0    0  0.00000000000E+00  0.00000000000E+00  0.11999999989E+02  0.12000000000E+02  0.51109989000E-03 0.  1.
     -623   -1    0    0    0    0  0.00000000000E+00  0.00000000000E+00  0.42561509872E-11  0.25126700000E+02  0.25126700000E+02 0. -1.
      622    2    1    2    0    0 -0.22740413799E-02  0.14143691686E-03  0.11997640013E+02  0.11998226016E+02  0.11855996666E+00 0.  0.
       11    1    1    2    0    0  0.14472499598E-02  0.32740873603E-03  0.82694442506E-03  0.17739191418E-02  0.51109989000E-03 0.  1.
     -623    1    1    2    0    0  0.82679142009E-03 -0.46884565289E-03  0.15330318921E-02  0.25126700065E+02  0.25126700000E+02 0. -1.
     -611    1    3    3    0    0 -0.48710399675E-01  0.19214607734E-01  0.32580630173E+01  0.32584991222E+01  0.10000000000E-01 0. -1.
      611    1    3    3    0    0  0.46436358295E-01 -0.19073170817E-01  0.87395769955E+01  0.87397268939E+01  0.10000000000E-01 0.  1.
</event>
<event>
 7   0  0.6206631E-02  0.9118800E+02  0.7818608E-02  0.1180000E+00
       11   -1    0    0    0    0  0.00000000000E+00  0.00000000000E+00  0.11999999989E+02  0.12000000000E+02  0.51109989000E-03 0.  1.
     -623   -1    0    0    0    0  0.00000000000E+00  0.00000000000E+00  0.42561509872E-11  0.25126700000E+02  0.25126700000E+02 0. -1.
      622    2    1    2    0    0  0.48737401714E-01  0.31141854045E-01  0.80764526336E+01  0.80775509600E+01  0.11998841787E+00 0.  0.
       11    1    1    2    0    0 -0.44117918026E-01 -0.26962372786E-01  0.39221074014E+01  0.39224482265E+01  0.51109989000E-03 0.  1.
     -623    1    1    2    0    0 -0.46194836888E-02 -0.41794812588E-02  0.14399541958E-02  0.25126700814E+02  0.25126700000E+02 0. -1.
     -611    1    3    3    0    0  0.35113572599E-01  0.52989815064E-01  0.19988265929E+01  0.19998621532E+01  0.10000000000E-01 0. -1.
      611    1    3    3    0    0  0.13623829115E-01 -0.21847961019E-01  0.60776260407E+01  0.60776888068E+01  0.10000000000E-01 0.  1.
</event>
<event>
 7   0  0.6206631E-02  0.9118800E+02  0.7818608E-02  0.1180000E+00
       11   -1    0    0    0    0  0.00000000000E+00  0.00000000000E+00  0.11999999989E+02  0.12000000000E+02  0.51109989000E-03 0. -1.
     -623   -1    0    0    0    0  0.00000000000E+00  0.00000000000E+00  0.42561509872E-11  0.25126700000E+02  0.25126700000E+02 0.  1.
      622    2    1    2    0    0  0.66595442655E-02 -0.28052612791E-01  0.10191322338E+02  0.10191843019E+02  0.98903114226E-01 0.  0.
       11    1    1    2    0    0 -0.22846709329E-01  0.32014311131E-01  0.18077235593E+01  0.18081514363E+01  0.51109989000E-03 0. -1.
     -623    1    1    2    0    0  0.16187165063E-01 -0.39616983404E-02  0.95409142310E-03  0.25126705544E+02  0.25126700000E+02 0.  1.
     -611    1    3    3    0    0  0.44416176202E-01 -0.90555577827E-02  0.27328003353E+01  0.27331945545E+01  0.10000000000E-01 0.  1.
      611    1    3    3    0    0 -0.37756631937E-01 -0.18997055008E-01  0.74585220030E+01  0.74586484647E+01  0.10000000000E-01 0. -1.
</event>
<event>
 7   0  0.6206631E-02  0.9118800E+02  0.7818608E-02  0.1180000E+00
       11   -1    0    0    0    0  0.00000000000E+00  0.00000000000E+00  0.11999999989E+02  0.12000000000E+02  0.51109989000E-03 0. -1.
     -623   -1    0    0    0    0  0.00000000000E+00  0.00000000000E+00  0.42561509872E-11  0.25126700000E+02  0.25126700000E+02 0.  1.
      622    2    1    2    0    0 -0.69626850531E-01 -0.75477402136E-01  0.94149434113E+01  0.94156995888E+01  0.60782998540E-01 0.  0.
       11    1    1    2    0    0  0.72365350213E-01  0.79265991351E-01  0.25820699735E+01  0.25842997989E+01  0.51109989000E-03 0. -1.
     -623    1    1    2    0    0 -0.27384996825E-02 -0.37885892154E-02  0.29866044121E-02  0.25126700612E+02  0.25126700000E+02 0.  1.
     -611    1    3    3    0    0 -0.52161667342E-01 -0.18953623698E-01  0.56061931005E+01  0.56064767154E+01  0.10000000000E-01 0. -1.
      611    1    3    3    0    0 -0.17465183189E-01 -0.56523778438E-01  0.38087503107E+01  0.38092228735E+01  0.10000000000E-01 0.  1.
</event>
<event>
 7   0  0.6206631E-02  0.9118800E+02  0.7818608E-02  0.1180000E+00
       11   -1    0    0    0    0  0.00000000000E+00  0.00000000000E+00  0.11999999989E+02  0.12000000000E+02  0.51109989000E-03 0.  1.
     -623   -1    0    0    0    0  0.00000000000E+00  0.00000000000E+00  0.42561509872E-11  0.25126700000E+02  0.25126700000E+02 0. -1.
      622    2    1    2    0    0  0.77833945961E-03 -0.26212897253E-01  0.11708927329E+02  0.11709408911E+02  0.10290836251E+00 0.  0.
       11    1    1    2    0    0  0.14731722715E-01  0.20739816869E-01  0.28946951112E+00  0.29058565475E+00  0.51109989000E-03 0.  1.
     -623    1    1    2    0    0 -0.15510062175E-01  0.54730803839E-02  0.16031491044E-02  0.25126705434E+02  0.25126700000E+02 0. -1.
     -611    1    3    3    0    0 -0.26317235615E-01 -0.52812359673E-01  0.89762558960E+01  0.89764554058E+01  0.10000000000E-01 0.  1.
      611    1    3    3    0    0  0.27095575075E-01  0.26599462421E-01  0.27326714329E+01  0.27329535052E+01  0.10000000000E-01 0. -1.
</event>
<event>
 7   0  0.6206631E-02  0.9118800E+02  0.7818608E-02  0.1180000E+00
       11   -1    0    0    0    0  0.00000000000E+00  0.00000000000E+00  0.11999999989E+02  0.12000000000E+02  0.51109989000E-03 0. -1.
     -623   -1    0    0    0    0  0.00000000000E+00  0.00000000000E+00  0.42561509872E-11  0.25126700000E+02  0.25126700000E+02 0. -1.
      622    2    1    2    0    0  0.17541657308E-01  0.63906074576E-01  0.11011954185E+02  0.11013039921E+02  0.13971980599E+00 0.  0.
       11    1    1    2    0    0 -0.51977490602E-01  0.79860132811E-01  0.98191187136E+00  0.98652444708E+00  0.51109989000E-03 0. -1.
     -623    1    1    2    0    0  0.34435833294E-01 -0.14376620739E+00  0.61339323472E-02  0.25127135632E+02  0.25126700000E+02 0. -1.
     -611    1    3    3    0    0  0.67350271678E-01  0.30825318535E-01  0.85971197196E+01  0.85974446048E+01  0.10000000000E-01 0. -1.
      611    1    3    3    0    0 -0.49808614370E-01  0.33080756041E-01  0.24148344658E+01  0.24155953162E+01  0.10000000000E-01 0. -1.
</event>
<event>
 7   0  0.6206631E-02  0.9118800E+02  0.7818608E-02  0.1180000E+00
       11   -1    0    0    0    0  0.00000000000E+00  0.00000000000E+00  0.11999999989E+02  0.12000000000E+02  0.51109989000E-03 0. -1.
     -623   -1    0    0    0    0  0.00000000000E+00  0.00000000000E+00  0.42561509872E-11  0.25126700000E+02  0.25126700000E+02 0. -1.
      622    2    1    2    0    0  0.12924577129E-01  0.28159446727E-01  0.11892300424E+02  0.11892868017E+02  0.11198338191E+00 0.  0.
       11    1    1    2    0    0 -0.23966811852E-01 -0.11407319904E-01  0.10378190511E+00  0.10712366717E+00  0.51109989000E-03 0. -1.
     -623    1    1    2    0    0  0.11042234723E-01 -0.16752126824E-01  0.39176595302E-02  0.25126708316E+02  0.25126700000E+02 0. -1.
     -611    1    3    3    0    0 -0.10893443913E-01  0.27723822955E-01  0.11255322969E+02  0.11255366827E+02  0.10000000000E-01 0. -1.
      611    1    3    3    0    0  0.23818021042E-01  0.43562377171E-03  0.63697745592E+00  0.63750118999E+00  0.10000000000E-01 0. -1.
</event>
<event>
 7   0  0.6206631E-02  0.9118800E+02  0.7818608E-02  0.1180000E+00
       11   -1    0    0    0    0  0.00000000000E+00  0.00000000000E+00  0.11999999989E+02  0.12000000000E+02  0.51109989000E-03 0.  1.
     -623   -1    0    0    0    0  0.00000000000E+00  0.00000000000E+00  0.42561509872E-11  0.25126700000E+02  0.25126700000E+02 0.  1.
      622    2    1    2    0    0 -0.22367005090E-02 -0.17767055546E-01  0.11962554572E+02  0.11962955182E+02  0.96250331078E-01 0.  0.
       11    1    1    2    0    0  0.13695230222E-01  0.24412127758E-01  0.24249342649E-01  0.37037861096E-01  0.51109989000E-03 0.  1.
     -623    1    1    2    0    0 -0.11458529713E-01 -0.66450722121E-02  0.13196074087E-01  0.25126706957E+02  0.25126700000E+02 0.  1.
     -611    1    3    3    0    0  0.97417824657E-02 -0.37048426565E-01  0.21217732428E+01  0.21221425923E+01  0.10000000000E-01 0. -1.
      611    1    3    3    0    0 -0.11978482975E-01  0.19281371019E-01  0.98407813296E+01  0.98408125900E+01  0.10000000000E-01 0.  1.
</event>
<event>
 7   0  0.6206631E-02  0.9118800E+02  0.7818608E-02  0.1180000E+00
       11   -1    0    0    0    0  0.00000000000E+00  0.00000000000E+00  0.11999999989E+02  0.12000000000E+02  0.51109989000E-03 0. -1.
     -623   -1    0    0    0    0  0.00000000000E+00  0.00000000000E+00  0.42561509872E-11  0.25126700000E+02  0.25126700000E+02 0.  1.
      622    2    1    2    0    0  0.24064232430E-02 -0.44610809597E-02  0.11759057778E+02  0.11759469630E+02  0.98287682152E-01 0.  0.
       11    1    1    2    0    0 -0.85643397987E-03  0.30838469178E-02  0.24050844291E+00  0.24053028069E+00  0.51109989000E-03 0. -1.
     -623    1    1    2    0    0 -0.15499892631E-02  0.13772340419E-02  0.43376852902E-03  0.25126700089E+02  0.25126700000E+02 0.  1.
     -611    1    3    3    0    0  0.19662075411E-02  0.32822094209E-02  0.14134105629E+00  0.14174601605E+00  0.10000000000E-01 0. -1.
      611    1    3    3    0    0  0.44021570195E-03 -0.77432903806E-02  0.11617716721E+02  0.11617723614E+02  0.10000000000E-01 0. -1.
</event>
<event>
 7   0  0.6206631E-02  0.9118800E+02  0.7818608E-02  0.1180000E+00
       11   -1    0    0    0    0  0.00000000000E+00  0.00000000000E+00  0.11999999989E+02  0.12000000000E+02  0.51109989000E-03 0.  1.
     -623   -1    0    0    0    0  0.00000000000E+00  0.00000000000E+00  0.42561509872E-11  0.25126700000E+02  0.25126700000E+02 0.  1.
      622    2    1    2    0    0 -0.24601662342E-02 -0.18708925578E-02  0.11995555303E+02  0.11996008040E+02  0.10417444860E+00 0.  0.
       11    1    1    2    0    0  0.38056068350E-03  0.21032729493E-02  0.33324237753E-02  0.39918485575E-02  0.51109989000E-03 0.  1.
     -623    1    1    2    0    0  0.20796055507E-02 -0.23238039148E-03  0.11122626530E-02  0.25126700112E+02  0.25126700000E+02 0.  1.
     -611    1    3    3    0    0 -0.11240575236E-01 -0.37925831144E-01  0.22059203039E+01  0.22062976015E+01  0.10000000000E-01 0. -1.
      611    1    3    3    0    0  0.87804090016E-02  0.36054938586E-01  0.97896349987E+01  0.97897104381E+01  0.10000000000E-01 0.  1.
</event>
<event>
 7   0  0.6206631E-02  0.9118800E+02  0.7818608E-02  0.1180000E+00
       11   -1    0    0    0    0  0.00000000000E+00  0.00000000000E+00  0.11999999989E+02  0.12000000000E+02  0.51109989000E-03 0.  1.
     -623   -1    0    0    0    0  0.00000000000E+00  0.00000000000E+00  0.42561509872E-11  0.25126700000E+02  0.25126700000E+02 0. -1.
      622    2    1    2    0    0 -0.23699956517E-01  0.49034613080E-01  0.11507902573E+02  0.11508357334E+02  0.86607271165E-01 0.  0.
       11    1    1    2    0    0  0.34866321404E-01 -0.40759426160E-01  0.48870364591E+00  0.49163859281E+00  0.51109989000E-03 0.  1.
     -623    1    1    2    0    0 -0.11166364888E-01 -0.82751869195E-02  0.33937701991E-02  0.25126704073E+02  0.25126700000E+02 0. -1.
     -611    1    3    3    0    0 -0.99868062226E-02  0.57622434731E-01  0.10890971371E+02  0.10891132975E+02  0.10000000000E-01 0.  1.
      611    1    3    3    0    0 -0.13713150294E-01 -0.85878216511E-02  0.61693120201E+00  0.61722435887E+00  0.10000000000E-01 0.  1.
</event>
<event>
 7   0  0.6206631E-02  0.9118800E+02  0.7818608E-02  0.1180000E+00
       11   -1    0    0    0    0  0.00000000000E+00  0.00000000000E+00  0.11999999989E+02  0.12000000000E+02  0.51109989000E-03 0. -1.
     -623   -1    0    0    0    0  0.00000000000E+00  0.00000000000E+00  0.42561509872E-11  0.25126700000E+02  0.25126700000E+02 0. -1.
      622    2    1    2    0    0 -0.36113211964E-02  0.48545960136E-03  0.11975190434E+02  0.11976422184E+02  0.17172402040E+00 0.  0.
       11    1    1    2    0    0  0.13347900495E-02 -0.13764581690E-02  0.23494012605E-01  0.23577662162E-01  0.51109989000E-03 0. -1.
     -623    1    1    2    0    0  0.22765311469E-02  0.89099856764E-03  0.13155427786E-02  0.25126700153E+02  0.25126700000E+02 0. -1.
     -611    1    3    3    0    0  0.70422087779E-01  0.27001262412E-01  0.84408325786E+01  0.84411754488E+01  0.10000000000E-01 0. -1.
      611    1    3    3    0    0 -0.74033408975E-01 -0.26515802811E-01  0.35343578552E+01  0.35352467356E+01  0.10000000000E-01 0.  1.
</event>
<event>
 7   0  0.6206631E-02  0.9118800E+02  0.7818608E-02  0.1180000E+00
       11   -1    0    0    0    0  0.00000000000E+00  0.00000000000E+00  0.11999999989E+02  0.12000000000E+02  0.51109989000E-03 0. -1.
     -623   -1    0    0    0    0  0.00000000000E+00  0.00000000000E+00  0.42561509872E-11  0.25126700000E+02  0.25126700000E+02 0.  1.
      622    2    1    2    0    0  0.11223951572E-02 -0.15849614610E-02  0.11963690542E+02  0.11964278458E+02  0.11859121336E+00 0.  0.
       11    1    1    2    0    0 -0.32759998538E-03 -0.10317793643E-02  0.35701320567E-01  0.35721385805E-01  0.51109989000E-03 0. -1.
     -623    1    1    2    0    0 -0.79479517178E-03  0.26167408254E-02  0.60812704150E-03  0.25126700156E+02  0.25126700000E+02 0.  1.
     -611    1    3    3    0    0  0.25535042685E-01  0.24125669873E-01  0.10672582411E+02  0.10672644911E+02  0.10000000000E-01 0. -1.
      611    1    3    3    0    0 -0.24412647528E-01 -0.25710631334E-01  0.12911081307E+01  0.12916335467E+01  0.10000000000E-01 0.  1.
</event>
<event>
 7   0  0.6206631E-02  0.9118800E+02  0.7818608E-02  0.1180000E+00
       11   -1    0    0    0    0  0.00000000000E+00  0.00000000000E+00  0.11999999989E+02  0.12000000000E+02  0.51109989000E-03 0.  1.
     -623   -1    0    0    0    0  0.00000000000E+00  0.00000000000E+00  0.42561509872E-11  0.25126700000E+02  0.25126700000E+02 0.  1.
      622    2    1    2    0    0  0.33989170474E-02  0.33966009871E-02  0.11969529607E+02  0.11969879087E+02  0.91341333500E-01 0.  0.
       11    1    1    2    0    0  0.10549668027E-01  0.26934537303E-01  0.82654272806E-02  0.30088923319E-01  0.51109989000E-03 0.  1.
     -623    1    1    2    0    0 -0.13948585075E-01 -0.30331138290E-01  0.22204954373E-01  0.25126731990E+02  0.25126700000E+02 0.  1.
     -611    1    3    3    0    0  0.45931135979E-02  0.18079938234E-01  0.11489327890E+02  0.11489347386E+02  0.10000000000E-01 0.  1.
      611    1    3    3    0    0 -0.11941965505E-02 -0.14683337247E-01  0.48020171704E+00  0.48053170088E+00  0.10000000000E-01 0.  1.
</event>
<event>
 7   0  0.6206631E-02  0.9118800E+02  0.7818608E-02  0.1180000E+00
       11   -1    0    0    0    0  0.00000000000E+00  0.00000000000E+00  0.11999999989E+02  0.12000000000E+02  0.51109989000E-03 0.  1.
     -623   -1    0    0    0    0  0.00000000000E+00  0.00000000000E+00  0.42561509872E-11  0.25126700000E+02  0.25126700000E+02 0. -1.
      622    2    1    2    0    0  0.43293613252E-04  0.27246716450E-02  0.11993249401E+02  0.11993680650E+02  0.10167060906E+00 0.  0.
       11    1    1    2    0    0 -0.15678058554E-02  0.35441477448E-02  0.49641403047E-02  0.63184579261E-02  0.51109989000E-03 0.  1.
     -623    1    1    2    0    0  0.15245122422E-02 -0.62688193899E-02  0.17864474469E-02  0.25126700892E+02  0.25126700000E+02 0. -1.
     -611    1    3    3    0    0  0.29531144189E-01  0.28246370081E-01  0.25626523875E+01  0.25629976989E+01  0.10000000000E-01 0.  1.
      611    1    3    3    0    0 -0.29487850576E-01 -0.25521698436E-01  0.94305970139E+01  0.94306829514E+01  0.10000000000E-01 0.  1.
</event>
<event>
 7   0  0.6206631E-02  0.9118800E+02  0.7818608E-02  0.1180000E+00
       11   -1    0    0    0    0  0.00000000000E+00  0.00000000000E+00  0.11999999989E+02  0.12000000000E+02  0.51109989000E-03 0. -1.
     -623   -1    0    0    0    0  0.00000000000E+00  0.00000000000E+00  0.42561509872E-11  0.25126700000E+02  0.25126700000E+02 0. -1.
      622    2    1    2    0    0 -0.36190274843E-02  0.15881476175E-03  0.11921102044E+02  0.11921627881E+02  0.11191187085E+00 0.  0.
       11    1    1    2    0    0 -0.47915504395E-02  0.14799543210E-02  0.78208363768E-01  0.78370648886E-01  0.51109989000E-03 0. -1.
     -623    1    1    2    0    0  0.84105779239E-02 -0.16387690827E-02  0.68958175676E-03  0.25126701471E+02  0.25126700000E+02 0. -1.
     -611    1    3    3    0    0 -0.74340644148E-02 -0.42198007388E-01  0.22667556046E+01  0.22671825926E+01  0.10000000000E-01 0.  1.
      611    1    3    3    0    0  0.38150369305E-02  0.42356822150E-01  0.96543464389E+01  0.96544452879E+01  0.10000000000E-01 0. -1.
</event>
<event>
 7   0  0.6206631E-02  0.9118800E+02  0.7818608E-02  0.1180000E+00
       11   -1    0    0    0    0  0.00000000000E+00  0.00000000000E+00  0.11999999989E+02  0.12000000000E+02  0.51109989000E-03 0. -1.
     -623   -1    0    0    0    0  0.00000000000E+00  0.00000000000E+00  0.42561509872E-11  0.25126700000E+02  0.25126700000E+02 0.  1.
      622    2    1    2    0    0 -0.36960965250E-02  0.68288176505E-02  0.11888394340E+02  0.11888568199E+02  0.63824318399E-01 0.  0.
       11    1    1    2    0    0  0.50961813994E-02 -0.23235159219E-02  0.11128933501E+00  0.11143135601E+00  0.51109989000E-03 0. -1.
     -623    1    1    2    0    0 -0.14000848745E-02 -0.45053017286E-02  0.31631396106E-03  0.25126700445E+02  0.25126700000E+02 0.  1.
     -611    1    3    3    0    0  0.13053901769E-02  0.28324801043E-01  0.32294635752E+01  0.32296035333E+01  0.10000000000E-01 0.  1.
      611    1    3    3    0    0 -0.50014867019E-02 -0.21495983392E-01  0.86589307650E+01  0.86589646659E+01  0.10000000000E-01 0. -1.
</event>
<event>
 7   0  0.6206631E-02  0.9118800E+02  0.7818608E-02  0.1180000E+00
       11   -1    0    0    0    0  0.00000000000E+00  0.00000000000E+00  0.11999999989E+02  0.12000000000E+02  0.51109989000E-03 0. -1.
     -623   -1    0    0    0    0  0.00000000000E+00  0.00000000000E+00  0.42561509872E-11  0.25126700000E+02  0.25126700000E+02 0.  1.
      622    2    1    2    0    0  0.64627577479E-02 -0.85289925678E-02  0.11928463938E+02  0.11928686248E+02  0.72035885449E-01 0.  0.
       11    1    1    2    0    0 -0.45372987465E-02  0.11129448018E-01  0.70291565814E-01  0.71313513031E-01  0.51109989000E-03 0. -1.
     -623    1    1    2    0    0 -0.19254590014E-02 -0.26004554500E-02  0.12444853560E-02  0.25126700239E+02  0.25126700000E+02 0.  1.
     -611    1    3    3    0    0  0.19441313846E-01 -0.16301733719E-01  0.18044219469E+01  0.18046280154E+01  0.10000000000E-01 0. -1.
      611    1    3    3    0    0 -0.12978556099E-01  0.77727411515E-02  0.10124041991E+02  0.10124058232E+02  0.10000000000E-01 0. -1.
</event>
<event>
 7   0  0.6206631E-02  0.9118800E+02  0.7818608E-02  0.1180000E+00
       11   -1    0    0    0    0  0.00000000000E+00  0.00000000000E+00  0.11999999989E+02  0.12000000000E+02  0.51109989000E-03 0.  1.
     -623   -1    0    0    0    0  0.00000000000E+00  0.00000000000E+00  0.42561509872E-11  0.25126700000E+02  0.25126700000E+02 0.  1.
      622    2    1    2    0    0  0.27691696880E-01 -0.19715045205E-01  0.10853907596E+02  0.10854388598E+02  0.96364993565E-01 0.  0.
       11    1    1    2    0    0 -0.35305382008E-01  0.11140246929E-01  0.11450103057E+01  0.11456087624E+01  0.51109989000E-03 0.  1.
     -623    1    1    2    0    0  0.76136851276E-02  0.85747982761E-02  0.10820873578E-02  0.25126702640E+02  0.25126700000E+02 0.  1.
     -611    1    3    3    0    0 -0.22265471582E-01 -0.23505076523E-01  0.16959019476E+01  0.16962404475E+01  0.10000000000E-01 0. -1.
      611    1    3    3    0    0  0.49957168463E-01  0.37900313183E-02  0.91580056485E+01  0.91581481502E+01  0.10000000000E-01 0.  1.
</event>
<event>
 7   0  0.6206631E-02  0.9118800E+02  0.7818608E-02  0.1180000E+00
       11   -1    0    0    0    0  0.00000000000E+00  0.00000000000E+00  0.11999999989E+02  0.12000000000E+02  0.51109989000E-03 0. -1.
     -623   -1    0    0    0    0  0.00000000000E+00  0.00000000000E+00  0.42561509872E-11  0.25126700000E+02  0.25126700000E+02 0.  1.
      622    2    1    2    0    0  0.35092037932E-03 -0.12197738822E-02  0.11971148179E+02  0.11971464361E+02  0.86997778161E-01 0.  0.
       11    1    1    2    0    0 -0.13648807997E-02  0.79421853561E-03  0.28487300392E-01  0.28535612652E-01  0.51109989000E-03 0. -1.
     -623    1    1    2    0    0  0.10139604204E-02  0.42555534664E-03  0.36451013958E-03  0.25126700027E+02  0.25126700000E+02 0.  1.
     -611    1    3    3    0    0 -0.37916219099E-02 -0.33580540905E-01  0.24339023537E+01  0.24341574921E+01  0.10000000000E-01 0.  1.
      611    1    3    3    0    0  0.41425422893E-02  0.32360767023E-01  0.95372458249E+01  0.95373068685E+01  0.10000000000E-01 0. -1.
</event>
<event>
 7   0  0.6206631E-02  0.9118800E+02  0.7818608E-02  0.1180000E+00
       11   -1    0    0    0    0  0.00000000000E+00  0.00000000000E+00  0.11999999989E+02  0.12000000000E+02  0.51109989000E-03 0. -1.
     -623   -1    0    0    0    0  0.00000000000E+00  0.00000000000E+00  0.42561509872E-11  0.25126700000E+02  0.25126700000E+02 0. -1.
      622    2    1    2    0    0  0.16850612905E-02 -0.72530095594E-02  0.11898144195E+02  0.11898685128E+02  0.11321243402E+00 0.  0.
       11    1    1    2    0    0 -0.55612250383E-02  0.27337296858E-02  0.10112317454E+00  0.10131415574E+00  0.51109989000E-03 0. -1.
     -623    1    1    2    0    0  0.38761637478E-02  0.45192798735E-02  0.73261984218E-03  0.25126700716E+02  0.25126700000E+02 0. -1.
     -611    1    3    3    0    0  0.52066944613E-01 -0.82475902361E-03  0.82904751894E+01  0.82906447586E+01  0.10000000000E-01 0.  1.
      611    1    3    3    0    0 -0.50381883322E-01 -0.64282505358E-02  0.36076690053E+01  0.36080403695E+01  0.10000000000E-01 0. -1.
</event>
<event>
 7   0  0.6206631E-02  0.9118800E+02  0.7818608E-02  0.1180000E+00
       11   -1    0    0    0    0  0.00000000000E+00  0.00000000000E+00  0.11999999989E+02  0.12000000000E+02  0.51109989000E-03 0. -1.
     -623   -1    0    0    0    0  0.00000000000E+00  0.00000000000E+00  0.42561509872E-11  0.25126700000E+02  0.25126700000E+02 0. -1.
      622    2    1    2    0    0  0.13394061620E-01 -0.30613349645E-01  0.11543186647E+02  0.11543589814E+02  0.90505493854E-01 0.  0.
       11    1    1    2    0    0 -0.56477820724E-03  0.38296687705E-01  0.45479545477E+00  0.45640565527E+00  0.51109989000E-03 0. -1.
     -623    1    1    2    0    0 -0.12829283413E-01 -0.76833380595E-02  0.20178874121E-02  0.25126704531E+02  0.25126700000E+02 0. -1.
     -611    1    3    3    0    0 -0.70116619268E-02  0.29497018935E-01  0.42636285720E+01  0.42637480973E+01  0.10000000000E-01 0.  1.
      611    1    3    3    0    0  0.20405723547E-01 -0.60110368581E-01  0.72795580750E+01  0.72798417165E+01  0.10000000000E-01 0. -1.
</event>
<event>
 7   0  0.6206631E-02  0.9118800E+02  0.7818608E-02  0.1180000E+00
       11   -1    0    0    0    0  0.00000000000E+00  0.00000000000E+00  0.11999999989E+02  0.12000000000E+02  0.51109989000E-03 0. -1.
     -623   -1    0    0    0    0  0.00000000000E+00  0.00000000000E+00  0.42561509872E-11  0.25126700000E+02  0.25126700000E+02 0. -1.
      622    2    1    2    0    0  0.54915480195E-01 -0.35537514723E-01  0.96971487920E+01  0.96978619295E+01  0.97737833560E-01 0.  0.
       11    1    1    2    0    0 -0.20863949600E-02  0.27365612357E-03  0.23020567574E+01  0.23020577759E+01  0.51109989000E-03 0. -1.
     -623    1    1    2    0    0 -0.52829085235E-01  0.35263858600E-01  0.79443966830E-03  0.25126780295E+02  0.25126700000E+02 0. -1.
     -611    1    3    3    0    0  0.45412587250E-01  0.19288182463E-01  0.66372578105E+01  0.66374487252E+01  0.10000000000E-01 0.  1.
      611    1    3    3    0    0  0.95028929450E-02 -0.54825697186E-01  0.30598909816E+01  0.30604132043E+01  0.10000000000E-01 0. -1.
</event>
<event>
 7   0  0.6206631E-02  0.9118800E+02  0.7818608E-02  0.1180000E+00
       11   -1    0    0    0    0  0.00000000000E+00  0.00000000000E+00  0.11999999989E+02  0.12000000000E+02  0.51109989000E-03 0. -1.
     -623   -1    0    0    0    0  0.00000000000E+00  0.00000000000E+00  0.42561509872E-11  0.25126700000E+02  0.25126700000E+02 0. -1.
      622    2    1    2    0    0 -0.87904950410E-03  0.23753302620E-02  0.11996771850E+02  0.11997163487E+02  0.96904552391E-01 0.  0.
       11    1    1    2    0    0  0.17301799273E-02 -0.10816005636E-03  0.21859957597E-02  0.28363747587E-02  0.51109989000E-03 0. -1.
     -623    1    1    2    0    0 -0.85113042319E-03 -0.22671702057E-02  0.10421431931E-02  0.25126700138E+02  0.25126700000E+02 0. -1.
     -611    1    3    3    0    0  0.18273372174E-01  0.19678419092E-01  0.11521276329E+01  0.11524839429E+01  0.10000000000E-01 0.  1.
      611    1    3    3    0    0 -0.19152421679E-01 -0.17303088830E-01  0.10844644217E+02  0.10844679544E+02  0.10000000000E-01 0. -1.
</event>
<event>
 7   0  0.6206631E-02  0.9118800E+02  0.7818608E-02  0.1180000E+00
       11   -1    0    0    0    0  0.00000000000E+00  0.00000000000E+00  0.11999999989E+02  0.12000000000E+02  0.51109989000E-03 0. -1.
     -623   -1    0    0    0    0  0.00000000000E+00  0.00000000000E+00  0.42561509872E-11  0.25126700000E+02  0.25126700000E+02 0. -1.
      622    2    1    2    0    0  0.75472850731E-04 -0.22577697422E-02  0.11991593773E+02  0.11992079127E+02  0.10786785739E+00 0.  0.
       11    1    1    2    0    0 -0.33769745107E-02 -0.26738129448E-02  0.66267392625E-02  0.79201091459E-02  0.51109989000E-03 0. -1.
     -623    1    1    2    0    0  0.33015016600E-02  0.49315826870E-02  0.17794771341E-02  0.25126700764E+02  0.25126700000E+02 0. -1.
     -611    1    3    3    0    0  0.58568997855E-02  0.24685475185E-01  0.11040512216E+02  0.11040545896E+02  0.10000000000E-01 0. -1.
      611    1    3    3    0    0 -0.57814269348E-02 -0.26943244927E-01  0.95108155647E+00  0.95153323137E+00  0.10000000000E-01 0.  1.
</event>
<event>
 7   0  0.6206631E-02  0.9118800E+02  0.7818608E-02  0.1180000E+00
       11   -1    0    0    0    0  0.00000000000E+00  0.00000000000E+00  0.11999999989E+02  0.12000000000E+02  0.51109989000E-03 0. -1.
     -623   -1    0    0    0    0  0.00000000000E+00  0.00000000000E+00  0.42561509872E-11  0.25126700000E+02  0.25126700000E+02 0. -1.
      622    2    1    2    0    0 -0.92223803284E-02  0.24359963192E-01  0.74465359199E+01  0.74471944665E+01  0.95549750764E-01 0.  0.
       11    1    1    2    0    0  0.66458824590E-02 -0.22117805500E-01  0.45527466867E+01  0.45528052912E+01  0.51109989000E-03 0. -1.
     -623    1    1    2    0    0  0.25764978694E-02 -0.22421576924E-02  0.71738255833E-03  0.25126700242E+02  0.25126700000E+02 0. -1.
     -611    1    3    3    0    0  0.15879254546E-01  0.35024627147E-02  0.65230465702E+01  0.65230745032E+01  0.10000000000E-01 0. -1.
      611    1    3    3    0    0 -0.25101634875E-01  0.20857500477E-01  0.92348934975E+00  0.92411996327E+00  0.10000000000E-01 0.  1.
</event>
<event>
 7   0  0.6206631E-02  0.9118800E+02  0.7818608E-02  0.1180000E+00
       11   -1    0    0    0    0  0.00000000000E+00  0.00000000000E+00  0.11999999989E+02  0.12000000000E+02  0.51109989000E-03 0.  1.
     -623   -1    0    0    0    0  0.00000000000E+00  0.00000000000E+00  0.42561509872E-11  0.25126700000E+02  0.25126700000E+02 0. -1.
      622    2    1    2    0    0  0.13283732414E-02  0.32464992445E-02  0.11810088264E+02  0.11810369930E+02  0.81490912816E-01 0.  0.
       11    1    1    2    0    0 -0.90094464757E-03 -0.20674863737E-02  0.18961593669E+00  0.18963003684E+00  0.51109989000E-03 0.  1.
     -623    1    1    2    0    0 -0.42742859385E-03 -0.11790128708E-02  0.29578801873E-03  0.25126700033E+02  0.25126700000E+02 0. -1.
     -611    1    3    3    0    0  0.20719635979E-01  0.14040142056E-01  0.14348742293E+01  0.14351273403E+01  0.10000000000E-01 0.  1.
      611    1    3    3    0    0 -0.19391262737E-01 -0.10793642811E-01  0.10375214035E+02  0.10375242590E+02  0.10000000000E-01 0.  1.
</event>
<event>
 7   0  0.6206631E-02  0.9118800E+02  0.7818608E-02  0.1180000E+00
       11   -1    0    0    0    0  0.00000000000E+00  0.00000000000E+00  0.11999999989E+02  0.12000000000E+02  0.51109989000E-03 0. -1.
     -623   -1    0    0    0    0  0.00000000000E+00  0.00000000000E+00  0.42561509872E-11  0.25126700000E+02  0.25126700000E+02 0.  1.
      622    2    1    2    0    0  0.34844450865E-03  0.45348638277E-03  0.11996104210E+02  0.11996557632E+02  0.10429997130E+00 0.  0.
       11    1    1    2    0    0 -0.11033138835E-02 -0.83714200928E-03  0.31097235367E-02  0.34423410433E-02  0.51109989000E-03 0. -1.
     -623    1    1    2    0    0  0.75486937483E-03  0.38365562651E-03  0.78605562168E-03  0.25126700027E+02  0.25126700000E+02 0.  1.
     -611    1    3    3    0    0 -0.10829716254E-01 -0.48639515814E-01  0.47593174385E+01  0.47595888022E+01  0.10000000000E-01 0. -1.
      611    1    3    3    0    0  0.11178160763E-01  0.49093002197E-01  0.72367867714E+01  0.72369688302E+01  0.10000000000E-01 0.  1.
</event>
<event>
 7   0  0.6206631E-02  0.9118800E+02  0.7818608E-02  0.1180000E+00
       11   -1    0    0    0    0  0.00000000000E+00  0.00000000000E+00  0.11999999989E+02  0.12000000000E+02  0.51109989000E-03 0. -1.
     -623   -1    0    0    0    0  0.00000000000E+00  0.00000000000E+00  0.42561509872E-11  0.25126700000E+02  0.25126700000E+02 0. -1.
      622    2    1    2    0    0  0.48299347542E-01  0.35365056365E-02  0.11635221502E+02  0.11636063971E+02  0.13137736050E+00 0.  0.
       11    1    1    2    0    0 -0.44044480049E-01 -0.28178145550E-01  0.36014702566E+00  0.36392315868E+00  0.51109989000E-03 0. -1.
     -623    1    1    2    0    0 -0.42548674929E-02  0.24641639913E-01  0.46314615550E-02  0.25126712870E+02  0.25126700000E+02 0. -1.
     -611    1    3    3    0    0 -0.25359451822E-01  0.24593602832E-01  0.12115727621E+01  0.12121289143E+01  0.10000000000E-01 0.  1.
      611    1    3    3    0    0  0.73658799364E-01 -0.21057097196E-01  0.10423648740E+02  0.10423935057E+02  0.10000000000E-01 0. -1.
</event>
<event>
 7   0  0.6206631E-02  0.9118800E+02  0.7818608E-02  0.1180000E+00
       11   -1    0    0    0    0  0.00000000000E+00  0.00000000000E+00  0.11999999989E+02  0.12000000000E+02  0.51109989000E-03 0.  1.
     -623   -1    0    0    0    0  0.00000000000E+00  0.00000000000E+00  0.42561509872E-11  0.25126700000E+02  0.25126700000E+02 0. -1.
      622    2    1    2    0    0  0.16339777961E-01  0.17818425573E-03  0.11059520338E+02  0.11060039443E+02  0.10590261591E+00 0.  0.
       11    1    1    2    0    0 -0.15641102756E-01  0.22339993373E-02  0.93982748434E+00  0.93996042278E+00  0.51109989000E-03 0.  1.
     -623    1    1    2    0    0 -0.69867520465E-03 -0.24121835931E-02  0.65216697807E-03  0.25126700134E+02  0.25126700000E+02 0. -1.
     -611    1    3    3    0    0  0.38378167352E-01 -0.21173158515E-01  0.21950117671E+01  0.21954721232E+01  0.10000000000E-01 0. -1.
      611    1    3    3    0    0 -0.22038389391E-01  0.21351342770E-01  0.88645085707E+01  0.88645673200E+01  0.10000000000E-01 0.  1.
</event>
<event>
 7   0  0.6206631E-02  0.9118800E+02  0.7818608E-02  0.1180000E+00
       11   -1    0    0    0    0  0.00000000000E+00  0.00000000000E+00  0.11999999989E+02  0.12000000000E+02  0.51109989000E-03 0. -1.
     -623   -1    0    0    0    0  0.00000000000E+00  0.00000000000E+00  0.42561509872E-11  0.25126700000E+02  0.25126700000E+02 0.  1.
      622    2    1    2    0    0  0.11559711917E-01  0.26119585437E-02  0.10889529229E+02  0.10889978971E+02  0.98258423959E-01 0.  0.
       11    1    1    2    0    0 -0.12508142393E-01 -0.28170884211E-02  0.11099468366E+01  0.11100210047E+01  0.51109989000E-03 0. -1.
     -623    1    1    2    0    0  0.94843047560E-03  0.20512987748E-03  0.52392378456E-03  0.25126700024E+02  0.25126700000E+02 0.  1.
     -611    1    3    3    0    0 -0.23738455070E-01 -0.34318805986E-01  0.34354228547E+01  0.34356908309E+01  0.10000000000E-01 0. -1.
      611    1    3    3    0    0  0.35298166987E-01  0.36930764530E-01  0.74541063741E+01  0.74542881403E+01  0.10000000000E-01 0.  1.
</event>
<event>
 7   0  0.6206631E-02  0.9118800E+02  0.7818608E-02  0.1180000E+00
       11   -1    0    0    0    0  0.00000000000E+00  0.00000000000E+00  0.11999999989E+02  0.12000000000E+02  0.51109989000E-03 0.  1.
     -623   -1    0    0    0    0  0.00000000000E+00  0.00000000000E+00  0.42561509872E-11  0.25126700000E+02  0.25126700000E+02 0.  1.
      622    2    1    2    0    0 -0.24786683745E-01  0.44615282215E-01  0.11874706249E+02  0.11875424559E+02  0.12022916600E+00 0.  0.
       11    1    1    2    0    0  0.39029885998E-01 -0.10464168496E-01  0.11780867241E+00  0.12454708082E+00  0.51109989000E-03 0.  1.
     -623    1    1    2    0    0 -0.14243202252E-01 -0.34151113719E-01  0.74850676177E-02  0.25126728360E+02  0.25126700000E+02 0.  1.
     -611    1    3    3    0    0  0.45648111767E-01  0.13131727090E-01  0.61197208934E+01  0.61199133985E+01  0.10000000000E-01 0. -1.
      611    1    3    3    0    0 -0.70434795512E-01  0.31483555125E-01  0.57549853557E+01  0.57555111606E+01  0.10000000000E-01 0.  1.
</event>
<event>
 7   0  0.6206631E-02  0.9118800E+02  0.7818608E-02  0.1180000E+00
       11   -1    0    0    0    0  0.00000000000E+00  0.00000000000E+00  0.11999999989E+02  0.12000000000E+02  0.51109989000E-03 0.  1.
     -623   -1    0    0    0    0  0.00000000000E+00  0.00000000000E+00  0.42561509872E-11  0.25126700000E+02  0.25126700000E+02 0. -1.
      622    2    1    2    0    0 -0.22027894551E-02  0.78245170696E-03  0.10926836912E+02  0.10926911482E+02  0.40301162191E-01 0.  0.
       11    1    1    2    0    0  0.21164947527E-02 -0.53562479147E-03  0.10730861735E+01  0.10730885161E+01  0.51109989000E-03 0.  1.
     -623    1    1    2    0    0  0.86294702348E-04 -0.24682691550E-03  0.76903864308E-04  0.25126700001E+02  0.25126700000E+02 0. -1.
     -611    1    3    3    0    0  0.12856248209E-01 -0.68145322993E-02  0.73182008755E+01  0.73182221731E+01  0.10000000000E-01 0.  1.
      611    1    3    3    0    0 -0.15059037665E-01  0.75969840063E-02  0.36086360363E+01  0.36086893093E+01  0.10000000000E-01 0.  1.
</event>
<event>
 7   0  0.6206631E-02  0.9118800E+02  0.7818608E-02  0.1180000E+00
       11   -1    0    0    0    0  0.00000000000E+00  0.00000000000E+00  0.11999999989E+02  0.12000000000E+02  0.51109989000E-03 0.  1.
     -623   -1    0    0    0    0  0.00000000000E+00  0.00000000000E+00  0.42561509872E-11  0.25126700000E+02  0.25126700000E+02 0. -1.
      622    2    1    2    0    0 -0.10688453652E-02 -0.23092656484E-02  0.11993492712E+02  0.11993935550E+02  0.10303439101E+00 0.  0.
       11    1    1    2    0    0 -0.17325325437E-03 -0.10036360853E-03  0.60394048502E-02  0.60642991044E-02  0.51109989000E-03 0.  1.
     -623    1    1    2    0    0  0.12420986196E-02  0.24096292569E-02  0.46787264310E-03  0.25126700151E+02  0.25126700000E+02 0. -1.
     -611    1    3    3    0    0 -0.33147878944E-01 -0.32467508873E-01  0.34872093772E+01  0.34875323886E+01  0.10000000000E-01 0. -1.
      611    1    3    3    0    0  0.32079033579E-01  0.30158243225E-01  0.85062833344E+01  0.85064031617E+01  0.10000000000E-01 0.  1.
</event>
<event>
 7   0  0.6206631E-02  0.9118800E+02  0.7818608E-02  0.1180000E+00
       11   -1    0    0    0    0  0.00000000000E+00  0.00000000000E+00  0.11999999989E+02  0.12000000000E+02  0.51109989000E-03 0.  1.
     -623   -1    0    0    0    0  0.00000000000E+00  0.00000000000E+00  0.42561509872E-11  0.25126700000E+02  0.25126700000E+02 0.  1.
      622    2    1    2    0    0 -0.16001274536E-02  0.17226056149E-02  0.11966535487E+02  0.11966866375E+02  0.88959271017E-01 0.  0.
       11    1    1    2    0    0 -0.15241286694E-03 -0.13128472543E-02  0.33103242435E-01  0.33133558222E-01  0.51109989000E-03 0.  1.
     -623    1    1    2    0    0  0.17525403205E-02 -0.40975836068E-03  0.36126013855E-03  0.25126700067E+02  0.25126700000E+02 0.  1.
     -611    1    3    3    0    0  0.30336023996E-01  0.75705276730E-02  0.98785039207E+01  0.98785584625E+01  0.10000000000E-01 0.  1.
      611    1    3    3    0    0 -0.31936151450E-01 -0.58479220580E-02  0.20880315659E+01  0.20883079122E+01  0.10000000000E-01 0. -1.
</event>
<event>
 7   0  0.6206631E-02  0.9118800E+02  0.7818608E-02  0.1180000E+00
       11   -1    0    0    0    0  0.00000000000E+00  0.00000000000E+00  0.11999999989E+02  0.12000000000E+02  0.51109989000E-03 0.  1.
     -623   -1    0    0    0    0  0.00000000000E+00  0.00000000000E+00  0.42561509872E-11  0.25126700000E+02  0.25126700000E+02 0. -1.
      622    2    1    2    0    0 -0.13585905284E-01 -0.88295924396E-02  0.11131985941E+02  0.11132629228E+02  0.11857485019E+00 0.  0.
       11    1    1    2    0    0 -0.59623900827E-02  0.16331596951E-01  0.86718761919E+00  0.86736203471E+00  0.51109989000E-03 0.  1.
     -623    1    1    2    0    0  0.19548295367E-01 -0.75020045118E-02  0.82642915867E-03  0.25126708738E+02  0.25126700000E+02 0. -1.
     -611    1    3    3    0    0 -0.37982648980E-01 -0.11662209734E-02  0.10470411606E+02  0.10470485339E+02  0.10000000000E-01 0.  1.
      611    1    3    3    0    0  0.24396743696E-01 -0.76633714662E-02  0.66157433489E+00  0.66214388841E+00  0.10000000000E-01 0. -1.
</event>
<event>
 7   0  0.6206631E-02  0.9118800E+02  0.7818608E-02  0.1180000E+00
       11   -1    0    0    0    0  0.00000000000E+00  0.00000000000E+00  0.11999999989E+02  0.12000000000E+02  0.51109989000E-03 0.  1.
     -623   -1    0    0    0    0  0.00000000000E+00  0.00000000000E+00  0.42561509872E-11  0.25126700000E+02  0.25126700000E+02 0. -1.
      622    2    1    2    0    0  0.12971593486E+00 -0.32538366156E-01  0.98185895130E+01  0.98199794542E+01  0.97012824483E-01 0.  0.
       11    1    1    2    0    0 -0.86994317977E-01  0.93831723912E-02  0.21782165898E+01  0.21799733550E+01  0.51109989000E-03 0.  1.
     -623    1    1    2    0    0 -0.42721616888E-01  0.23155193764E-01  0.31938863917E-02  0.25126747191E+02  0.25126700000E+02 0. -1.
     -611    1    3    3    0    0  0.75749999277E-01 -0.65918436714E-01  0.61337157250E+01  0.61345457776E+01  0.10000000000E-01 0.  1.
      611    1    3    3    0    0  0.53965935588E-01  0.33380070558E-01  0.36848737880E+01  0.36854336766E+01  0.10000000000E-01 0. -1.
</event>
<event>
 7   0  0.6206631E-02  0.9118800E+02  0.7818608E-02  0.1180000E+00
       11   -1    0    0    0    0  0.00000000000E+00  0.00000000000E+00  0.11999999989E+02  0.12000000000E+02  0.51109989000E-03 0. -1.
     -623   -1    0    0    0    0  0.00000000000E+00  0.00000000000E+00  0.42561509872E-11  0.25126700000E+02  0.25126700000E+02 0.  1.
      622    2    1    2    0    0  0.91957944045E-03 -0.40177451381E-02  0.11937640244E+02  0.11937941516E+02  0.84711599549E-01 0.  0.
       11    1    1    2    0    0  0.75024988686E-03  0.49290521050E-02  0.61855688830E-01  0.62058407112E-01  0.51109989000E-03 0. -1.
     -623    1    1    2    0    0 -0.16698293273E-02 -0.91130696691E-03  0.50405641598E-03  0.25126700077E+02  0.25126700000E+02 0.  1.
     -611    1    3    3    0    0  0.17290666279E-01  0.12157445298E-01  0.10031862364E+01  0.10034587164E+01  0.10000000000E-01 0. -1.
      611    1    3    3    0    0 -0.16371086839E-01 -0.16175190436E-01  0.10934454007E+02  0.10934482799E+02  0.10000000000E-01 0. -1.
</event>
<event>
 7   0  0.6206631E-02  0.9118800E+02  0.7818608E-02  0.1180000E+00
       11   -1    0    0    0    0  0.00000000000E+00  0.00000000000E+00  0.11999999989E+02  0.12000000000E+02  0.51109989000E-03 0. -1.
     -623   -1    0    0    0    0  0.00000000000E+00  0.00000000000E+00  0.42561509872E-11  0.25126700000E+02  0.25126700000E+02 0. -1.
      622    2    1    2    0    0  0.42108418547E-01 -0.12791049779E+00  0.11568689550E+02  0.11569939418E+02  0.10385577410E+00 0.  0.
       11    1    1    2    0    0 -0.54149257309E-01 -0.19836094447E-01  0.42573441544E+00  0.42962270241E+00  0.51109989000E-03 0. -1.
     -623    1    1    2    0    0  0.12040838762E-01  0.14774659224E+00  0.55760238495E-02  0.25127137880E+02  0.25126700000E+02 0. -1.
     -611    1    3    3    0    0  0.31959494721E-01 -0.89629587576E-03  0.42656795218E+01  0.42658110595E+01  0.10000000000E-01 0. -1.
      611    1    3    3    0    0  0.10148923827E-01 -0.12701420192E+00  0.73030100281E+01  0.73041283586E+01  0.10000000000E-01 0.  1.
</event>
<event>
 7   0  0.6206631E-02  0.9118800E+02  0.7818608E-02  0.1180000E+00
       11   -1    0    0    0    0  0.00000000000E+00  0.00000000000E+00  0.11999999989E+02  0.12000000000E+02  0.51109989000E-03 0. -1.
     -623   -1    0    0    0    0  0.00000000000E+00  0.00000000000E+00  0.42561509872E-11  0.25126700000E+02  0.25126700000E+02 0. -1.
      622    2    1    2    0    0  0.13903538605E+00  0.10113546256E-01  0.59357332014E+01  0.59383854185E+01  0.10981629323E+00 0.  0.
       11    1    1    2    0    0 -0.62236968974E-01  0.57143305462E-01  0.60608180439E+01  0.60614069670E+01  0.51109989000E-03 0. -1.
     -623    1    1    2    0    0 -0.76798417078E-01 -0.67256851719E-01  0.34487438268E-02  0.25126907614E+02  0.25126700000E+02 0. -1.
     -611    1    3    3    0    0  0.54625976832E-01 -0.19552277903E-01  0.41209410111E+01  0.41213615597E+01  0.10000000000E-01 0. -1.
      611    1    3    3    0    0  0.84409409219E-01  0.29665824159E-01  0.18147921903E+01  0.18170238588E+01  0.10000000000E-01 0.  1.
</event>
<event>
 7   0  0.6206631E-02  0.9118800E+02  0.7818608E-02  0.1180000E+00
       11   -1    0    0    0    0  0.00000000000E+00  0.00000000000E+00  0.11999999989E+02  0.12000000000E+02  0.51109989000E-03 0.  1.
     -623   -1    0    0    0    0  0.00000000000E+00  0.00000000000E+00  0.42561509872E-11  0.25126700000E+02  0.25126700000E+02 0. -1.
      622    2    1    2    0    0  0.36181292289E-01  0.58689293475E-03  0.11587261141E+02  0.11587580292E+02  0.78018218625E-01 0.  0.
       11    1    1    2    0    0 -0.12901284035E-01  0.48076928818E-01  0.40934578170E+00  0.41236157003E+00  0.51109989000E-03 0.  1.
     -623    1    1    2    0    0 -0.23280008253E-01 -0.48663821753E-01  0.33930664734E-02  0.25126758138E+02  0.25126700000E+02 0. -1.
     -611    1    3    3    0    0 -0.17447593238E-02  0.26684230667E-01  0.20040333519E+01  0.20042367045E+01  0.10000000000E-01 0. -1.
      611    1    3    3    0    0  0.37926051612E-01 -0.26097337732E-01  0.95832277891E+01  0.95833435874E+01  0.10000000000E-01 0.  1.
</event>
<event>
 7   0  0.6206631E-02  0.9118800E+02  0.7818608E-02  0.1180000E+00
       11   -1    0    0    0    0  0.00000000000E+00  0.00000000000E+00  0.11999999989E+02  0.12000000000E+02  0.51109989000E-03 0.  1.
     -623   -1    0    0    0    0  0.00000000000E+00  0.00000000000E+00  0.42561509872E-11  0.25126700000E+02  0.25126700000E+02 0.  1.
      622    2    1    2    0    0  0.29091778359E-01  0.35506839688E-03  0.82403912472E+01  0.82407882027E+01  0.75470765588E-01 0.  0.
       11    1    1    2    0    0 -0.31417752667E-01  0.75290426651E-02  0.37590715824E+01  0.37592104470E+01  0.51109989000E-03 0.  1.
     -623    1    1    2    0    0  0.23259743077E-02 -0.78841110620E-02  0.53715944549E-03  0.25126701350E+02  0.25126700000E+02 0.  1.
     -611    1    3    3    0    0 -0.99235380675E-02  0.91920787231E-02  0.59627600612E+01  0.59627837893E+01  0.10000000000E-01 0. -1.
      611    1    3    3    0    0  0.39015316427E-01 -0.88370103262E-02  0.22776311860E+01  0.22780044134E+01  0.10000000000E-01 0.  1.
</event>
<event>
 7   0  0.6206631E-02  0.9118800E+02  0.7818608E-02  0.1180000E+00
       11   -1    0    0    0    0  0.00000000000E+00  0.00000000000E+00  0.11999999989E+02  0.12000000000E+02  0.51109989000E-03 0.  1.
     -623   -1    0    0    0    0  0.00000000000E+00  0.00000000000E+00  0.42561509872E-11  0.25126700000E+02  0.25126700000E+02 0.  1.
      622    2    1    2    0    0 -0.43053564072E-01 -0.13395652130E-01  0.11031836803E+02  0.11032310777E+02  0.91786620865E-01 0.  0.
       11    1    1    2    0    0  0.47963449478E-01  0.31481958758E-01  0.96597973845E+00  0.96768213920E+00  0.51109989000E-03 0.  1.
     -623    1    1    2    0    0 -0.49098854064E-02 -0.18086306628E-01  0.21834479464E-02  0.25126707084E+02  0.25126700000E+02 0.  1.
     -611    1    3    3    0    0 -0.54372014491E-01 -0.25594078150E-02  0.10505600506E+02  0.10505746278E+02  0.10000000000E-01 0.  1.
      611    1    3    3    0    0  0.11318450420E-01 -0.10836244315E-01  0.52623629714E+00  0.52656449931E+00  0.10000000000E-01 0.  1.
</event>
<event>
 7   0  0.6206631E-02  0.9118800E+02  0.7818608E-02  0.1180000E+00
       11   -1    0    0    0    0  0.00000000000E+00  0.00000000000E+00  0.11999999989E+02  0.12000000000E+02  0.51109989000E-03 0.  1.
     -623   -1    0    0    0    0  0.00000000000E+00  0.00000000000E+00  0.42561509872E-11  0.25126700000E+02  0.25126700000E+02 0. -1.
      622    2    1    2    0    0  0.17604997795E-01 -0.59824368793E-02  0.11837741028E+02  0.11838116358E+02  0.92415023532E-01 0.  0.
       11    1    1    2    0    0  0.16646542895E-01 -0.14536358825E-01  0.16033510413E+00  0.16185184570E+00  0.51109989000E-03 0.  1.
     -623    1    1    2    0    0 -0.34251540690E-01  0.20518795705E-01  0.19238574396E-02  0.25126731797E+02  0.25126700000E+02 0. -1.
     -611    1    3    3    0    0 -0.30267033246E-02 -0.49118854872E-02  0.18876707890E+00  0.18911979703E+00  0.10000000000E-01 0.  1.
      611    1    3    3    0    0  0.20631701120E-01 -0.10705513921E-02  0.11648973949E+02  0.11648996561E+02  0.10000000000E-01 0.  1.
</event>
<event>
 7   0  0.6206631E-02  0.9118800E+02  0.7818608E-02  0.1180000E+00
       11   -1    0    0    0    0  0.00000000000E+00  0.00000000000E+00  0.11999999989E+02  0.12000000000E+02  0.51109989000E-03 0. -1.
     -623   -1    0    0    0    0  0.00000000000E+00  0.00000000000E+00  0.42561509872E-11  0.25126700000E+02  0.25126700000E+02 0. -1.
      622    2    1    2    0    0 -0.42479443317E-01 -0.52563817637E-01  0.67347400628E+01  0.67376019713E+01  0.18436147354E+00 0.  0.
       11    1    1    2    0    0  0.88272891391E-02 -0.38553833116E-02  0.52623031374E+01  0.52623119782E+01  0.51109989000E-03 0. -1.
     -623    1    1    2    0    0  0.33652154178E-01  0.56419200949E-01  0.29567889727E-02  0.25126786050E+02  0.25126700000E+02 0. -1.
     -611    1    3    3    0    0  0.66559024221E-01 -0.25336905506E-01  0.38234382157E+01  0.38241145186E+01  0.10000000000E-01 0. -1.
      611    1    3    3    0    0 -0.10903846754E+00 -0.27226912130E-01  0.29113018471E+01  0.29134874527E+01  0.10000000000E-01 0.  1.
</event>
<event>
 7   0  0.6206631E-02  0.9118800E+02  0.7818608E-02  0.1180000E+00
       11   -1    0    0    0    0  0.00000000000E+00  0.00000000000E+00  0.11999999989E+02  0.12000000000E+02  0.51109989000E-03 0. -1.
     -623   -1    0    0    0    0  0.00000000000E+00  0.00000000000E+00  0.42561509872E-11  0.25126700000E+02  0.25126700000E+02 0. -1.
      622    2    1    2    0    0  0.92272963953E-03 -0.59796091920E-01  0.81268401457E+01  0.81276551583E+01  0.98342225629E-01 0.  0.
       11    1    1    2    0    0  0.36867917183E-01  0.48120553263E-01  0.38718391123E+01  0.38723136758E+01  0.51109989000E-03 0. -1.
     -623    1    1    2    0    0 -0.37790646822E-01  0.11675538658E-01  0.13207310860E-02  0.25126731166E+02  0.25126700000E+02 0. -1.
     -611    1    3    3    0    0  0.17805597658E-01  0.20917969284E-01  0.29966259370E+01  0.29967685275E+01  0.10000000000E-01 0.  1.
      611    1    3    3    0    0 -0.16882868018E-01 -0.80714061204E-01  0.51302142087E+01  0.51308866308E+01  0.10000000000E-01 0. -1.
</event>
<event>
 7   0  0.6206631E-02  0.9118800E+02  0.7818608E-02  0.1180000E+00
       11   -1    0    0    0    0  0.00000000000E+00  0.00000000000E+00  0.11999999989E+02  0.12000000000E+02  0.51109989000E-03 0. -1.
     -623   -1    0    0    0    0  0.00000000000E+00  0.00000000000E+00  0.42561509872E-11  0.25126700000E+02  0.25126700000E+02 0.  1.
      622    2    1    2    0    0  0.57724182028E-01  0.12930106780E-01  0.10185136213E+02  0.10185817183E+02  0.10184664861E+00 0.  0.
       11    1    1    2    0    0 -0.59465463143E-01 -0.15771591046E-01  0.18131390267E+01  0.18141825366E+01  0.51109989000E-03 0. -1.
     -623    1    1    2    0    0  0.17412811153E-02  0.28414842660E-02  0.17247491481E-02  0.25126700280E+02  0.25126700000E+02 0.  1.
     -611    1    3    3    0    0  0.45362612644E-01  0.52259669745E-01  0.77139411306E+01  0.77142580075E+01  0.10000000000E-01 0.  1.
      611    1    3    3    0    0  0.12361569384E-01 -0.39329562965E-01  0.24711950826E+01  0.24715591757E+01  0.10000000000E-01 0. -1.
</event>
<event>
 7   0  0.6206631E-02  0.9118800E+02  0.7818608E-02  0.1180000E+00
       11   -1    0    0    0    0  0.00000000000E+00  0.00000000000E+00  0.11999999989E+02  0.12000000000E+02  0.51109989000E-03 0. -1.
     -623   -1    0    0    0    0  0.00000000000E+00  0.00000000000E+00  0.42561509872E-11  0.25126700000E+02  0.25126700000E+02 0. -1.
      622    2    1    2    0    0  0.12049279296E-01  0.17911556472E-01  0.11927004903E+02  0.11927547190E+02  0.11166923313E+00 0.  0.
       11    1    1    2    0    0 -0.18108968718E-01 -0.15429409349E-01  0.68432180383E-01  0.72451542122E-01  0.51109989000E-03 0. -1.
     -623    1    1    2    0    0  0.60596894220E-02 -0.24821471235E-02  0.45629060058E-02  0.25126701268E+02  0.25126700000E+02 0. -1.
     -611    1    3    3    0    0  0.34693280507E-01  0.56388185763E-01  0.78513208330E+01  0.78516063372E+01  0.10000000000E-01 0.  1.
      611    1    3    3    0    0 -0.22644001212E-01 -0.38476629291E-01  0.40756840697E+01  0.40759408531E+01  0.10000000000E-01 0. -1.
</event>
<event>
 7   0  0.6206631E-02  0.9118800E+02  0.7818608E-02  0.1180000E+00
       11   -1    0    0    0    0  0.00000000000E+00  0.00000000000E+00  0.11999999989E+02  0.12000000000E+02  0.51109989000E-03 0.  1.
     -623   -1    0    0    0    0  0.00000000000E+00  0.00000000000E+00  0.42561509872E-11  0.25126700000E+02  0.25126700000E+02 0. -1.
      622    2    1    2    0    0  0.28033033252E-02 -0.68717636334E-02  0.11737181557E+02  0.11737478630E+02  0.83178215657E-01 0.  0.
       11    1    1    2    0    0 -0.34985148173E-02  0.71150385746E-02  0.26240110031E+00  0.26252135541E+00  0.51109989000E-03 0.  1.
     -623    1    1    2    0    0  0.69521149213E-03 -0.24327494118E-03  0.41733180068E-03  0.25126700014E+02  0.25126700000E+02 0. -1.
     -611    1    3    3    0    0  0.27653356931E-01  0.17286522113E-01  0.25731445716E+01  0.25733706531E+01  0.10000000000E-01 0. -1.
      611    1    3    3    0    0 -0.24850053606E-01 -0.24158285746E-01  0.91640369854E+01  0.91641079772E+01  0.10000000000E-01 0.  1.
</event>
<event>
 7   0  0.6206631E-02  0.9118800E+02  0.7818608E-02  0.1180000E+00
       11   -1    0    0    0    0  0.00000000000E+00  0.00000000000E+00  0.11999999989E+02  0.12000000000E+02  0.51109989000E-03 0. -1.
     -623   -1    0    0    0    0  0.00000000000E+00  0.00000000000E+00  0.42561509872E-11  0.25126700000E+02  0.25126700000E+02 0.  1.
      622    2    1    2    0    0 -0.22521535989E-01 -0.19133138117E-01  0.11837016298E+02  0.11837758102E+02  0.12918491540E+00 0.  0.
       11    1    1    2    0    0 -0.10095871985E-01  0.12614461183E-01  0.16141239630E+00  0.16221983284E+00  0.51109989000E-03 0. -1.
     -623    1    1    2    0    0  0.32617407974E-01  0.65186769334E-02  0.15712948203E-02  0.25126722065E+02  0.25126700000E+02 0.  1.
     -611    1    3    3    0    0  0.21231492173E-01 -0.55949188787E-02  0.10297439044E+02  0.10297467307E+02  0.10000000000E-01 0. -1.
      611    1    3    3    0    0 -0.43753028161E-01 -0.13538219238E-01  0.15395772541E+01  0.15402907947E+01  0.10000000000E-01 0.  1.
</event>
<event>
 7   0  0.6206631E-02  0.9118800E+02  0.7818608E-02  0.1180000E+00
       11   -1    0    0    0    0  0.00000000000E+00  0.00000000000E+00  0.11999999989E+02  0.12000000000E+02  0.51109989000E-03 0. -1.
     -623   -1    0    0    0    0  0.00000000000E+00  0.00000000000E+00  0.42561509872E-11  0.25126700000E+02  0.25126700000E+02 0.  1.
      622    2    1    2    0    0 -0.16304849059E-01 -0.16400547254E-01  0.11823481139E+02  0.11823829847E+02  0.87813278467E-01 0.  0.
       11    1    1    2    0    0  0.11807683334E-01  0.16967414375E-01  0.17495195286E+00  0.17616969537E+00  0.51109989000E-03 0. -1.
     -623    1    1    2    0    0  0.44971657248E-02 -0.56686712150E-03  0.15668969733E-02  0.25126700458E+02  0.25126700000E+02 0.  1.
     -611    1    3    3    0    0 -0.99428165410E-02 -0.26436207095E-02  0.30762833394E+00  0.30796272530E+00  0.10000000000E-01 0. -1.
      611    1    3    3    0    0 -0.63620325181E-02 -0.13756926544E-01  0.11515852805E+02  0.11515867122E+02  0.10000000000E-01 0. -1.
</event>
<event>
 7   0  0.6206631E-02  0.9118800E+02  0.7818608E-02  0.1180000E+00
       11   -1    0    0    0    0  0.00000000000E+00  0.00000000000E+00  0.11999999989E+02  0.12000000000E+02  0.51109989000E-03 0.  1.
     -623   -1    0    0    0    0  0.00000000000E+00  0.00000000000E+00  0.42561509872E-11  0.25126700000E+02  0.25126700000E+02 0.  1.
      622    2    1    2    0    0 -0.16632942565E-02 -0.70471099344E-03  0.11992285655E+02  0.11992319437E+02  0.28407469461E-01 0.  0.
       11    1    1    2    0    0  0.14199018137E-02  0.76758887583E-03  0.74916261961E-02  0.76805598771E-02  0.51109989000E-03 0.  1.
     -623    1    1    2    0    0  0.24339244288E-03 -0.62877882360E-04  0.22270702697E-03  0.25126700002E+02  0.25126700000E+02 0.  1.
     -611    1    3    3    0    0 -0.14086596654E-02  0.12919322956E-02  0.10178952585E+02  0.10178957677E+02  0.10000000000E-01 0.  1.
      611    1    3    3    0    0 -0.25463459109E-03 -0.19966432890E-02  0.18133330704E+01  0.18133617608E+01  0.10000000000E-01 0.  1.
</event>
<event>
 7   0  0.6206631E-02  0.9118800E+02  0.7818608E-02  0.1180000E+00
       11   -1    0    0    0    0  0.00000000000E+00  0.00000000000E+00  0.11999999989E+02  0.12000000000E+02  0.51109989000E-03 0. -1.
     -623   -1    0    0    0    0  0.00000000000E+00  0.00000000000E+00  0.42561509872E-11  0.25126700000E+02  0.25126700000E+02 0.  1.
      622    2    1    2    0    0 -0.10659853865E-02  0.10520921648E-01  0.11956317487E+02  0.11956458626E+02  0.57124413388E-01 0.  0.
       11    1    1    2    0    0 -0.10460930271E-01 -0.19612239441E-01  0.37430974394E-01  0.43536307437E-01  0.51109989000E-03 0. -1.
     -623    1    1    2    0    0  0.11526915657E-01  0.90913177935E-02  0.62515275298E-02  0.25126705066E+02  0.25126700000E+02 0.  1.
     -611    1    3    3    0    0 -0.27277803781E-01  0.44644808442E-02  0.60568283841E+01  0.60568997090E+01  0.10000000000E-01 0.  1.
      611    1    3    3    0    0  0.26211818394E-01  0.60564408035E-02  0.58994891030E+01  0.58995589171E+01  0.10000000000E-01 0. -1.
</event>
<event>
 7   0  0.6206631E-02  0.9118800E+02  0.7818608E-02  0.1180000E+00
       11   -1    0    0    0    0  0.00000000000E+00  0.00000000000E+00  0.11999999989E+02  0.12000000000E+02  0.51109989000E-03 0. -1.
     -623   -1    0    0    0    0  0.00000000000E+00  0.00000000000E+00  0.42561509872E-11  0.25126700000E+02  0.25126700000E+02 0.  1.
      622    2    1    2    0    0  0.92280256947E-01  0.87040501611E-02  0.11400010344E+02  0.11400641580E+02  0.76165406604E-01 0.  0.
       11    1    1    2    0    0 -0.75344651768E-01 -0.52020010396E-02  0.59457425433E+00  0.59935188537E+00  0.51109989000E-03 0. -1.
     -623    1    1    2    0    0 -0.16935605179E-01 -0.35020491215E-02  0.54153904144E-02  0.25126706535E+02  0.25126700000E+02 0.  1.
     -611    1    3    3    0    0  0.76866038426E-01  0.44283781667E-02  0.10898506906E+02  0.10898783454E+02  0.10000000000E-01 0. -1.
      611    1    3    3    0    0  0.15414218521E-01  0.42756719944E-02  0.50150343867E+00  0.50185812587E+00  0.10000000000E-01 0.  1.
</event>
<event>
 7   0  0.6206631E-02  0.9118800E+02  0.7818608E-02  0.1180000E+00
       11   -1    0    0    0    0  0.00000000000E+00  0.00000000000E+00  0.11999999989E+02  0.12000000000E+02  0.51109989000E-03 0.  1.
     -623   -1    0    0    0    0  0.00000000000E+00  0.00000000000E+00  0.42561509872E-11  0.25126700000E+02  0.25126700000E+02 0. -1.
      622    2    1    2    0    0 -0.41408402958E-02 -0.45781020313E-02  0.11168267817E+02  0.11168725187E+02  0.10088686120E+00 0.  0.
       11    1    1    2    0    0 -0.19138117444E-01  0.21739241766E-01  0.83075326560E+00  0.83125814985E+00  0.51109989000E-03 0.  1.
     -623    1    1    2    0    0  0.23278957740E-01 -0.17161139734E-01  0.97890610266E-03  0.25126716663E+02  0.25126700000E+02 0. -1.
     -611    1    3    3    0    0 -0.11189666687E-01  0.11178044543E-01  0.10717341302E+02  0.10717357638E+02  0.10000000000E-01 0.  1.
      611    1    3    3    0    0  0.70488263915E-02 -0.15756146574E-01  0.45092651509E+00  0.45136754881E+00  0.10000000000E-01 0. -1.
</event>
<event>
 7   0  0.6206631E-02  0.9118800E+02  0.7818608E-02  0.1180000E+00
       11   -1    0    0    0    0  0.00000000000E+00  0.00000000000E+00  0.11999999989E+02  0.12000000000E+02  0.51109989000E-03 0.  1.
     -623   -1    0    0    0    0  0.00000000000E+00  0.00000000000E+00  0.42561509872E-11  0.25126700000E+02  0.25126700000E+02 0. -1.
      622    2    1    2    0    0 -0.48990845548E-01  0.11060055859E-01  0.11216452221E+02  0.11216932978E+02  0.90898812363E-01 0.  0.
       11    1    1    2    0    0  0.32886369556E-01 -0.25354092530E-02  0.78236523857E+00  0.78306038679E+00  0.51109989000E-03 0.  1.
     -623    1    1    2    0    0  0.16104475992E-01 -0.85246466057E-02  0.11825298135E-02  0.25126706635E+02  0.25126700000E+02 0. -1.
     -611    1    3    3    0    0 -0.60161472118E-01  0.19653985043E-01  0.44760446352E+01  0.44765032401E+01  0.10000000000E-01 0.  1.
      611    1    3    3    0    0  0.11170626570E-01 -0.85939291843E-02  0.67404075855E+01  0.67404297383E+01  0.10000000000E-01 0.  1.
</event>
<event>
 7   0  0.6206631E-02  0.9118800E+02  0.7818608E-02  0.1180000E+00
       11   -1    0    0    0    0  0.00000000000E+00  0.00000000000E+00  0.11999999989E+02  0.12000000000E+02  0.51109989000E-03 0.  1.
     -623   -1    0    0    0    0  0.00000000000E+00  0.00000000000E+00  0.42561509872E-11  0.25126700000E+02  0.25126700000E+02 0. -1.
      622    2    1    2    0    0 -0.51913716580E-01  0.32428621961E-02  0.10772741909E+02  0.10773252778E+02  0.91113220418E-01 0.  0.
       11    1    1    2    0    0  0.53496284573E-01 -0.35973755050E-02  0.12255747328E+01  0.12267471135E+01  0.51109989000E-03 0.  1.
     -623    1    1    2    0    0 -0.15825679932E-02  0.35451330888E-03  0.16833470006E-02  0.25126700109E+02  0.25126700000E+02 0. -1.
     -611    1    3    3    0    0 -0.10804716444E-01  0.11614960602E-01  0.41736719662E+00  0.41778825501E+00  0.10000000000E-01 0. -1.
      611    1    3    3    0    0 -0.41109000135E-01 -0.83720984055E-02  0.10355374713E+02  0.10355464523E+02  0.10000000000E-01 0.  1.
</event>
<event>
 7   0  0.6206631E-02  0.9118800E+02  0.7818608E-02  0.1180000E+00
       11   -1    0    0    0    0  0.00000000000E+00  0.00000000000E+00  0.11999999989E+02  0.12000000000E+02  0.51109989000E-03 0.  1.
     -623   -1    0    0    0    0  0.00000000000E+00  0.00000000000E+00  0.42561509872E-11  0.25126700000E+02  0.25126700000E+02 0. -1.
      622    2    1    2    0    0 -0.34111045396E-02 -0.39237179524E-03  0.11980325232E+02  0.11980584575E+02  0.78754650584E-01 0.  0.
       11    1    1    2    0    0 -0.17862762190E-02 -0.36493276640E-02  0.18977757225E-01  0.19414552984E-01  0.51109989000E-03 0.  1.
     -623    1    1    2    0    0  0.51973807586E-02  0.40416994593E-02  0.69699973417E-03  0.25126700872E+02  0.25126700000E+02 0. -1.
     -611    1    3    3    0    0  0.10987401923E-01 -0.21277892239E-01  0.10341135558E+02  0.10341168121E+02  0.10000000000E-01 0.  1.
      611    1    3    3    0    0 -0.14398506462E-01  0.20885520443E-01  0.16391896740E+01  0.16394164538E+01  0.10000000000E-01 0. -1.
</event>
<event>
 7   0  0.6206631E-02  0.9118800E+02  0.7818608E-02  0.1180000E+00
       11   -1    0    0    0    0  0.00000000000E+00  0.00000000000E+00  0.11999999989E+02  0.12000000000E+02  0.51109989000E-03 0.  1.
     -623   -1    0    0    0    0  0.00000000000E+00  0.00000000000E+00  0.42561509872E-11  0.25126700000E+02  0.25126700000E+02 0. -1.
      622    2    1    2    0    0 -0.15016967442E+00  0.17332573212E+00  0.92621353013E+01  0.92659929743E+01  0.13741440966E+00 0.  0.
       11    1    1    2    0    0  0.21520241873E+00 -0.15651820980E+00  0.27209303579E+01  0.27339115393E+01  0.51109989000E-03 0.  1.
     -623    1    1    2    0    0 -0.65032744316E-01 -0.16807522319E-01  0.16934329887E-01  0.25126795486E+02  0.25126700000E+02 0. -1.
     -611    1    3    3    0    0  0.72825829588E-02  0.86169990123E-01  0.31036620991E+01  0.31048827238E+01  0.10000000000E-01 0. -1.
      611    1    3    3    0    0 -0.15745225737E+00  0.87155741995E-01  0.61584732022E+01  0.61611102505E+01  0.10000000000E-01 0.  1.
</event>
<event>
 7   0  0.6206631E-02  0.9118800E+02  0.7818608E-02  0.1180000E+00
       11   -1    0    0    0    0  0.00000000000E+00  0.00000000000E+00  0.11999999989E+02  0.12000000000E+02  0.51109989000E-03 0. -1.
     -623   -1    0    0    0    0  0.00000000000E+00  0.00000000000E+00  0.42561509872E-11  0.25126700000E+02  0.25126700000E+02 0. -1.
      622    2    1    2    0    0 -0.90881734327E-02 -0.51929007739E-04  0.11652771614E+02  0.11653290321E+02  0.10957384722E+00 0.  0.
       11    1    1    2    0    0  0.27580832091E-02  0.18248181267E-02  0.34669266379E+00  0.34670881346E+00  0.51109989000E-03 0. -1.
     -623    1    1    2    0    0  0.63300902235E-02 -0.17728891190E-02  0.53571175803E-03  0.25126700866E+02  0.25126700000E+02 0. -1.
     -611    1    3    3    0    0  0.41551626580E-01  0.70838976909E-03  0.24421119312E+01  0.24424859721E+01  0.10000000000E-01 0.  1.
      611    1    3    3    0    0 -0.50639800013E-01 -0.76031877683E-03  0.92106596824E+01  0.92108043488E+01  0.10000000000E-01 0. -1.
</event>
<event>
 7   0  0.6206631E-02  0.9118800E+02  0.7818608E-02  0.1180000E+00
       11   -1    0    0    0    0  0.00000000000E+00  0.00000000000E+00  0.11999999989E+02  0.12000000000E+02  0.51109989000E-03 0. -1.
     -623   -1    0    0    0    0  0.00000000000E+00  0.00000000000E+00  0.42561509872E-11  0.25126700000E+02  0.25126700000E+02 0.  1.
      622    2    1    2    0    0 -0.19441187178E-02  0.48321928243E-02  0.11778813797E+02  0.11779027008E+02  0.70680068724E-01 0.  0.
       11    1    1    2    0    0  0.46834617326E-03 -0.52963421419E-02  0.22090837343E+00  0.22097294238E+00  0.51109989000E-03 0. -1.
     -623    1    1    2    0    0  0.14757725446E-02  0.46414931766E-03  0.27781869553E-03  0.25126700049E+02  0.25126700000E+02 0.  1.
     -611    1    3    3    0    0 -0.28994021489E-01  0.49060403272E-02  0.28990684385E+01  0.28992348186E+01  0.10000000000E-01 0.  1.
      611    1    3    3    0    0  0.27049902771E-01 -0.73847502941E-04  0.88797453585E+01  0.88797921898E+01  0.10000000000E-01 0. -1.
</event>
<event>
 7   0  0.6206631E-02  0.9118800E+02  0.7818608E-02  0.1180000E+00
       11   -1    0    0    0    0  0.00000000000E+00  0.00000000000E+00  0.11999999989E+02  0.12000000000E+02  0.51109989000E-03 0.  1.
     -623   -1    0    0    0    0  0.00000000000E+00  0.00000000000E+00  0.42561509872E-11  0.25126700000E+02  0.25126700000E+02 0. -1.
      622    2    1    2    0    0 -0.43029099026E-02 -0.66835584106E-02  0.11962489877E+02  0.11962645073E+02  0.60414446872E-01 0.  0.
       11    1    1    2    0    0  0.15469025284E-02 -0.21967235132E-02  0.37252948870E-01  0.37353205007E-01  0.51109989000E-03 0.  1.
     -623    1    1    2    0    0  0.27560073742E-02  0.88802819238E-02  0.25716316773E-03  0.25126701722E+02  0.25126700000E+02 0. -1.
     -611    1    3    3    0    0  0.18249255735E-01  0.16781562275E-01  0.56882293624E+01  0.56882921809E+01  0.10000000000E-01 0. -1.
      611    1    3    3    0    0 -0.22552165637E-01 -0.23465120685E-01  0.62742605146E+01  0.62743528923E+01  0.10000000000E-01 0.  1.
</event>
<event>
 7   0  0.6206631E-02  0.9118800E+02  0.7818608E-02  0.1180000E+00
       11   -1    0    0    0    0  0.00000000000E+00  0.00000000000E+00  0.11999999989E+02  0.12000000000E+02  0.51109989000E-03 0.  1.
     -623   -1    0    0    0    0  0.00000000000E+00  0.00000000000E+00  0.42561509872E-11  0.25126700000E+02  0.25126700000E+02 0.  1.
      622    2    1    2    0    0 -0.69703524263E-03  0.43907431476E-03  0.11997342964E+02  0.11997913279E+02  0.11697937832E+00 0.  0.
       11    1    1    2    0    0 -0.32765916370E-04  0.41639632234E-03  0.19795398518E-02  0.20866865290E-02  0.51109989000E-03 0.  1.
     -623    1    1    2    0    0  0.72980115900E-03 -0.85547063711E-03  0.67748505144E-03  0.25126700034E+02  0.25126700000E+02 0.  1.
     -611    1    3    3    0    0  0.24994272886E-01 -0.21074258670E-01  0.11367074277E+01  0.11372214447E+01  0.10000000000E-01 0. -1.
      611    1    3    3    0    0 -0.25691308129E-01  0.21513332985E-01  0.10860635537E+02  0.10860691834E+02  0.10000000000E-01 0.  1.
</event>
<event>
 7   0  0.6206631E-02  0.9118800E+02  0.7818608E-02  0.1180000E+00
       11   -1    0    0    0    0  0.00000000000E+00  0.00000000000E+00  0.11999999989E+02  0.12000000000E+02  0.51109989000E-03 0. -1.
     -623   -1    0    0    0    0  0.00000000000E+00  0.00000000000E+00  0.42561509872E-11  0.25126700000E+02  0.25126700000E+02 0.  1.
      622    2    1    2    0    0 -0.17757753814E-01 -0.62608118449E-02  0.11187111822E+02  0.11187514728E+02  0.93060943717E-01 0.  0.
       11    1    1    2    0    0  0.18249683956E-01  0.75887524109E-02  0.81224462884E+00  0.81248522351E+00  0.51109989000E-03 0. -1.
     -623    1    1    2    0    0 -0.49193014186E-03 -0.13279405660E-02  0.64353810068E-03  0.25126700048E+02  0.25126700000E+02 0.  1.
     -611    1    3    3    0    0 -0.39152049151E-01  0.30513314370E-01  0.66291751676E+01  0.66293685482E+01  0.10000000000E-01 0. -1.
      611    1    3    3    0    0  0.21394295337E-01 -0.36774126215E-01  0.45579366546E+01  0.45581461801E+01  0.10000000000E-01 0.  1.
</event>
<event>
 7   0  0.6206631E-02  0.9118800E+02  0.7818608E-02  0.1180000E+00
       11   -1    0    0    0    0  0.00000000000E+00  0.00000000000E+00  0.11999999989E+02  0.12000000000E+02  0.51109989000E-03 0. -1.
     -623   -1    0    0    0    0  0.00000000000E+00  0.00000000000E+00  0.42561509872E-11  0.25126700000E+02  0.25126700000E+02 0. -1.
      622    2    1    2    0    0 -0.51560684621E-02 -0.22434851884E-01  0.11690302203E+02  0.11691847316E+02  0.18867476709E+00 0.  0.
       11    1    1    2    0    0 -0.16660045228E-01  0.12136977300E-01  0.30745040698E+00  0.30814100230E+00  0.51109989000E-03 0. -1.
     -623    1    1    2    0    0  0.21816113691E-01  0.10297874584E-01  0.22473795534E-02  0.25126711682E+02  0.25126700000E+02 0. -1.
     -611    1    3    3    0    0  0.19672035090E-01 -0.35936961262E-02  0.11339332226E+02  0.11339354269E+02  0.10000000000E-01 0. -1.
      611    1    3    3    0    0 -0.24828103552E-01 -0.18841155757E-01  0.35096997647E+00  0.35249304711E+00  0.10000000000E-01 0.  1.
</event>
<event>
 7   0  0.6206631E-02  0.9118800E+02  0.7818608E-02  0.1180000E+00
       11   -1    0    0    0    0  0.00000000000E+00  0.00000000000E+00  0.11999999989E+02  0.12000000000E+02  0.51109989000E-03 0. -1.
     -623   -1    0    0    0    0  0.00000000000E+00  0.00000000000E+00  0.42561509872E-11  0.25126700000E+02  0.25126700000E+02 0.  1.
      622    2    1    2    0    0 -0.53253317549E-01 -0.36505295477E-02  0.99165295693E+01  0.99173990059E+01  0.11997959053E+00 0.  0.
       11    1    1    2    0    0  0.18551303660E-01 -0.15081520005E-01  0.20824327248E+01  0.20825700271E+01  0.51109989000E-03 0. -1.
     -623    1    1    2    0    0  0.34702013889E-01  0.18732049552E-01  0.10376950024E-02  0.25126730967E+02  0.25126700000E+02 0.  1.
     -611    1    3    3    0    0 -0.57662490339E-01  0.32263907799E-01  0.29034826625E+01  0.29042516238E+01  0.10000000000E-01 0. -1.
      611    1    3    3    0    0  0.44091727897E-02 -0.35914437347E-01  0.70130469068E+01  0.70131473822E+01  0.10000000000E-01 0.  1.
</event>
<event>
 7   0  0.6206631E-02  0.9118800E+02  0.7818608E-02  0.1180000E+00
       11   -1    0    0    0    0  0.00000000000E+00  0.00000000000E+00  0.11999999989E+02  0.12000000000E+02  0.51109989000E-03 0.  1.
     -623   -1    0    0    0    0  0.00000000000E+00  0.00000000000E+00  0.42561509872E-11  0.25126700000E+02  0.25126700000E+02 0.  1.
      622    2    1    2    0    0 -0.59670684960E-03 -0.14712086269E-02  0.11985117516E+02  0.11985502038E+02  0.95993306100E-01 0.  0.
       11    1    1    2    0    0  0.53335855089E-03  0.96154044411E-03  0.14447158070E-01  0.14497952642E-01  0.51109989000E-03 0.  1.
     -623    1    1    2    0    0  0.63348298715E-04  0.50966818280E-03  0.43531491018E-03  0.25126700009E+02  0.25126700000E+02 0.  1.
     -611    1    3    3    0    0  0.34472296452E-01 -0.31913058992E-01  0.54302242734E+01  0.54304366714E+01  0.10000000000E-01 0.  1.
      611    1    3    3    0    0 -0.35069003301E-01  0.30441850365E-01  0.65548932427E+01  0.65550653669E+01  0.10000000000E-01 0. -1.
</event>
<event>
 7   0  0.6206631E-02  0.9118800E+02  0.7818608E-02  0.1180000E+00
       11   -1    0    0    0    0  0.00000000000E+00  0.00000000000E+00  0.11999999989E+02  0.12000000000E+02  0.51109989000E-03 0. -1.
     -623   -1    0    0    0    0  0.00000000000E+00  0.00000000000E+00  0.42561509872E-11  0.25126700000E+02  0.25126700000E+02 0.  1.
      622    2    1    2    0    0 -0.46696729943E-02 -0.20842363734E-02  0.11955122734E+02  0.11955269245E+02  0.58966066113E-01 0.  0.
       11    1    1    2    0    0  0.42529633095E-04  0.17109360205E-02  0.44694649112E-01  0.44730325208E-01  0.51109989000E-03 0. -1.
     -623    1    1    2    0    0  0.46271433612E-02  0.37330035286E-03  0.18260617892E-03  0.25126700429E+02  0.25126700000E+02 0.  1.
     -611    1    3    3    0    0  0.17529544960E-01 -0.11136139330E-01  0.23878338703E+01  0.23879451189E+01  0.10000000000E-01 0.  1.
      611    1    3    3    0    0 -0.22199217954E-01  0.90519029568E-02  0.95672888635E+01  0.95673241264E+01  0.10000000000E-01 0. -1.
</event>
<event>
 7   0  0.6206631E-02  0.9118800E+02  0.7818608E-02  0.1180000E+00
       11   -1    0    0    0    0  0.00000000000E+00  0.00000000000E+00  0.11999999989E+02  0.12000000000E+02  0.51109989000E-03 0. -1.
     -623   -1    0    0    0    0  0.00000000000E+00  0.00000000000E+00  0.42561509872E-11  0.25126700000E+02  0.25126700000E+02 0. -1.
      622    2    1    2    0    0  0.63376761878E-02 -0.12305919587E-01  0.11816913472E+02  0.11817116909E+02  0.67944438767E-01 0.  0.
       11    1    1    2    0    0 -0.84102622058E-02 -0.13343916725E-02  0.18268022302E+00  0.18287929958E+00  0.51109989000E-03 0. -1.
     -623    1    1    2    0    0  0.20725860180E-02  0.13640311259E-01  0.40629436936E-03  0.25126703791E+02  0.25126700000E+02 0. -1.
     -611    1    3    3    0    0 -0.55165596211E-02 -0.10515893234E-01  0.11184487794E+02  0.11184498568E+02  0.10000000000E-01 0. -1.
      611    1    3    3    0    0  0.11854235809E-01 -0.17900263527E-02  0.63242567797E+00  0.63261834091E+00  0.10000000000E-01 0.  1.
</event>
<event>
 7   0  0.6206631E-02  0.9118800E+02  0.7818608E-02  0.1180000E+00
       11   -1    0    0    0    0  0.00000000000E+00  0.00000000000E+00  0.11999999989E+02  0.12000000000E+02  0.51109989000E-03 0. -1.
     -623   -1    0    0    0    0  0.00000000000E+00  0.00000000000E+00  0.42561509872E-11  0.25126700000E+02  0.25126700000E+02 0. -1.
      622    2    1    2    0    0  0.32262382033E-01 -0.13043632409E-02  0.76363558520E+01  0.76366001538E+01  0.51852167639E-01 0.  0.
       11    1    1    2    0    0 -0.18079538668E-01  0.15028741584E-01  0.43633287253E+01  0.43633920933E+01  0.51109989000E-03 0. -1.
     -623    1    1    2    0    0 -0.14182843366E-01 -0.13724378343E-01  0.31541170805E-03  0.25126707753E+02  0.25126700000E+02 0. -1.
     -611    1    3    3    0    0  0.97673692068E-02 -0.12343931247E-01  0.59440550017E+01  0.59440842556E+01  0.10000000000E-01 0. -1.
      611    1    3    3    0    0  0.22495012827E-01  0.11039568006E-01  0.16923008503E+01  0.16925158981E+01  0.10000000000E-01 0. -1.
</event>
<event>
 7   0  0.6206631E-02  0.9118800E+02  0.7818608E-02  0.1180000E+00
       11   -1    0    0    0    0  0.00000000000E+00  0.00000000000E+00  0.11999999989E+02  0.12000000000E+02  0.51109989000E-03 0.  1.
     -623   -1    0    0    0    0  0.00000000000E+00  0.00000000000E+00  0.42561509872E-11  0.25126700000E+02  0.25126700000E+02 0. -1.
      622    2    1    2    0    0  0.32882464345E-02  0.17070659326E-01  0.11915121594E+02  0.11915572434E+02  0.10218415904E+00 0.  0.
       11    1    1    2    0    0 -0.11007578100E-01 -0.71401996749E-02  0.83397029493E-01  0.84424374314E-01  0.51109989000E-03 0.  1.
     -623    1    1    2    0    0  0.77193316652E-02 -0.99304596508E-02  0.14813653708E-02  0.25126703192E+02  0.25126700000E+02 0. -1.
     -611    1    3    3    0    0  0.22108647607E-01  0.36669247101E-01  0.10754034414E+02  0.10754124307E+02  0.10000000000E-01 0.  1.
      611    1    3    3    0    0 -0.18820401173E-01 -0.19598587775E-01  0.11610871799E+01  0.11614481269E+01  0.10000000000E-01 0. -1.
</event>
<event>
 7   0  0.6206631E-02  0.9118800E+02  0.7818608E-02  0.1180000E+00
       11   -1    0    0    0    0  0.00000000000E+00  0.00000000000E+00  0.11999999989E+02  0.12000000000E+02  0.51109989000E-03 0.  1.
     -623   -1    0    0    0    0  0.00000000000E+00  0.00000000000E+00  0.42561509872E-11  0.25126700000E+02  0.25126700000E+02 0.  1.
      622    2    1    2    0    0  0.81820348991E-03  0.59732743042E-03  0.11985062803E+02  0.11985656849E+02  0.11932596629E+00 0.  0.
       11    1    1    2    0    0  0.22739615366E-02  0.94590992040E-02 -0.10506512024E-01  0.14328066055E-01  0.51109989000E-03 0.  1.
     -623    1    1    2    0    0 -0.30921650265E-02 -0.10056426634E-01  0.25443698341E-01  0.25126715085E+02  0.25126700000E+02 0.  1.
     -611    1    3    3    0    0 -0.34503637687E-01 -0.46423114149E-01  0.67104077107E+01  0.67106644418E+01  0.10000000000E-01 0. -1.
      611    1    3    3    0    0  0.35321841177E-01  0.47020441580E-01  0.52746550921E+01  0.52749924071E+01  0.10000000000E-01 0.  1.
</event>
<event>
 7   0  0.6206631E-02  0.9118800E+02  0.7818608E-02  0.1180000E+00
       11   -1    0    0    0    0  0.00000000000E+00  0.00000000000E+00  0.11999999989E+02  0.12000000000E+02  0.51109989000E-03 0.  1.
     -623   -1    0    0    0    0  0.00000000000E+00  0.00000000000E+00  0.42561509872E-11  0.25126700000E+02  0.25126700000E+02 0.  1.
      622    2    1    2    0    0 -0.11828621612E-02  0.21672649990E-03  0.11990640282E+02  0.11991018262E+02  0.95200499712E-01 0.  0.
       11    1    1    2    0    0 -0.29530613205E-02  0.43840294094E-03  0.84552393803E-02  0.89813731938E-02  0.51109989000E-03 0.  1.
     -623    1    1    2    0    0  0.41359234817E-02 -0.65512944084E-03  0.90446789405E-03  0.25126700365E+02  0.25126700000E+02 0.  1.
     -611    1    3    3    0    0 -0.14542400855E-01  0.24955175700E-01  0.10658382365E+02  0.10658426192E+02  0.10000000000E-01 0. -1.
      611    1    3    3    0    0  0.13359538694E-01 -0.24738449200E-01  0.13322579166E+01  0.13325920698E+01  0.10000000000E-01 0.  1.
</event>
<event>
 7   0  0.6206631E-02  0.9118800E+02  0.7818608E-02  0.1180000E+00
       11   -1    0    0    0    0  0.00000000000E+00  0.00000000000E+00  0.11999999989E+02  0.12000000000E+02  0.51109989000E-03 0. -1.
     -623   -1    0    0    0    0  0.00000000000E+00  0.00000000000E+00  0.42561509872E-11  0.25126700000E+02  0.25126700000E+02 0.  1.
      622    2    1    2    0    0  0.41464533532E-02 -0.26713438789E-01  0.95804747659E+01  0.95818882531E+01  0.16234208620E+00 0.  0.
       11    1    1    2    0    0 -0.88365323575E-02  0.33305687279E-01  0.24178648105E+01  0.24181103896E+01  0.51109989000E-03 0. -1.
     -623    1    1    2    0    0  0.46900790043E-02 -0.65922484899E-02  0.16604126975E-02  0.25126701357E+02  0.25126700000E+02 0.  1.
     -611    1    3    3    0    0 -0.23457179350E-01 -0.17952411681E-01  0.35618247454E+00  0.35754507900E+00  0.10000000000E-01 0.  1.
      611    1    3    3    0    0  0.27603632703E-01 -0.87610271076E-02  0.92242922914E+01  0.92243431741E+01  0.10000000000E-01 0. -1.
</event>
<event>
 7   0  0.6206631E-02  0.9118800E+02  0.7818608E-02  0.1180000E+00
       11   -1    0    0    0    0  0.00000000000E+00  0.00000000000E+00  0.11999999989E+02  0.12000000000E+02  0.51109989000E-03 0. -1.
     -623   -1    0    0    0    0  0.00000000000E+00  0.00000000000E+00  0.42561509872E-11  0.25126700000E+02  0.25126700000E+02 0. -1.
      622    2    1    2    0    0 -0.17006397256E-01 -0.16209125025E-01  0.63348063615E+01  0.63352225374E+01  0.68709591091E-01 0.  0.
       11    1    1    2    0    0  0.11042293688E-01  0.13018871693E-01  0.56647508028E+01  0.56647765483E+01  0.51109989000E-03 0. -1.
     -623    1    1    2    0    0  0.59641035678E-02  0.31902533313E-02  0.44282482651E-03  0.25126700914E+02  0.25126700000E+02 0. -1.
     -611    1    3    3    0    0 -0.22709863283E-01 -0.47570445297E-02  0.59715173887E+01  0.59715708395E+01  0.10000000000E-01 0. -1.
      611    1    3    3    0    0  0.57034660277E-02 -0.11452080495E-01  0.36328897280E+00  0.36365169797E+00  0.10000000000E-01 0.  1.
</event>
<event>
 7   0  0.6206631E-02  0.9118800E+02  0.7818608E-02  0.1180000E+00
       11   -1    0    0    0    0  0.00000000000E+00  0.00000000000E+00  0.11999999989E+02  0.12000000000E+02  0.51109989000E-03 0.  1.
     -623   -1    0    0    0    0  0.00000000000E+00  0.00000000000E+00  0.42561509872E-11  0.25126700000E+02  0.25126700000E+02 0. -1.
      622    2    1    2    0    0 -0.60987470224E-01 -0.69762889946E-01  0.99035414060E+01  0.99045270250E+01  0.10457952149E+00 0.  0.
       11    1    1    2    0    0  0.59085814788E-01  0.78837431712E-01  0.20931536431E+01  0.20954710470E+01  0.51109989000E-03 0.  1.
     -623    1    1    2    0    0  0.19016554361E-02 -0.90745417649E-02  0.33049400190E-02  0.25126701928E+02  0.25126700000E+02 0. -1.
     -611    1    3    3    0    0 -0.81719166721E-01 -0.33521838283E-01  0.80387806981E+01  0.80392721591E+01  0.10000000000E-01 0.  1.
      611    1    3    3    0    0  0.20731696497E-01 -0.36241051664E-01  0.18647607078E+01  0.18652548658E+01  0.10000000000E-01 0. -1.
</event>
<event>
 7   0  0.6206631E-02  0.9118800E+02  0.7818608E-02  0.1180000E+00
       11   -1    0    0    0    0  0.00000000000E+00  0.00000000000E+00  0.11999999989E+02  0.12000000000E+02  0.51109989000E-03 0. -1.
     -623   -1    0    0    0    0  0.00000000000E+00  0.00000000000E+00  0.42561509872E-11  0.25126700000E+02  0.25126700000E+02 0. -1.
      622    2    1    2    0    0 -0.21187537945E-01 -0.13918886560E-01  0.11254476631E+02  0.11255189235E+02  0.12408794998E+00 0.  0.
       11    1    1    2    0    0  0.28279609457E-01  0.11715943601E-01  0.74418017121E+00  0.74480963211E+00  0.51109989000E-03 0. -1.
     -623    1    1    2    0    0 -0.70920715117E-02  0.22029429598E-02  0.13431868644E-02  0.25126701133E+02  0.25126700000E+02 0. -1.
     -611    1    3    3    0    0 -0.29373253865E-01  0.74888607860E-03  0.69319696408E+00  0.69389147558E+00  0.10000000000E-01 0.  1.
      611    1    3    3    0    0  0.81857159196E-02 -0.14667772639E-01  0.10561279667E+02  0.10561297759E+02  0.10000000000E-01 0. -1.
</event>
<event>
 7   0  0.6206631E-02  0.9118800E+02  0.7818608E-02  0.1180000E+00
       11   -1    0    0    0    0  0.00000000000E+00  0.00000000000E+00  0.11999999989E+02  0.12000000000E+02  0.51109989000E-03 0. -1.
     -623   -1    0    0    0    0  0.00000000000E+00  0.00000000000E+00  0.42561509872E-11  0.25126700000E+02  0.25126700000E+02 0. -1.
      622    2    1    2    0    0 -0.48641826299E-01 -0.36879454701E-01  0.11354791438E+02  0.11355423907E+02  0.10313763356E+00 0.  0.
       11    1    1    2    0    0 -0.10636637979E-01 -0.19054099388E-02  0.64438542097E+00  0.64447622194E+00  0.51109989000E-03 0. -1.
     -623    1    1    2    0    0  0.59278464278E-01  0.38784864640E-01  0.82312969820E-03  0.25126799871E+02  0.25126700000E+02 0. -1.
     -611    1    3    3    0    0 -0.70447387154E-01  0.51185457071E-02  0.64913089881E+01  0.64917009645E+01  0.10000000000E-01 0.  1.
      611    1    3    3    0    0  0.21805560855E-01 -0.41998000408E-01  0.48634824504E+01  0.48637229423E+01  0.10000000000E-01 0. -1.
</event>
<event>
 7   0  0.6206631E-02  0.9118800E+02  0.7818608E-02  0.1180000E+00
       11   -1    0    0    0    0  0.00000000000E+00  0.00000000000E+00  0.11999999989E+02  0.12000000000E+02  0.51109989000E-03 0.  1.
     -623   -1    0    0    0    0  0.00000000000E+00  0.00000000000E+00  0.42561509872E-11  0.25126700000E+02  0.25126700000E+02 0.  1.
      622    2    1    2    0    0  0.12202217547E-01 -0.74630283595E-02  0.97724387930E+01  0.97731910506E+01  0.12041078863E+00 0.  0.
       11    1    1    2    0    0 -0.11498954432E-01  0.84860619307E-02  0.22267629877E+01  0.22268089060E+01  0.51109989000E-03 0.  1.
     -623    1    1    2    0    0 -0.70326311493E-03 -0.10230335711E-02  0.79820837715E-03  0.25126700043E+02  0.25126700000E+02 0.  1.
     -611    1    3    3    0    0 -0.12156824365E-01  0.36707552734E-01  0.13391642991E+01  0.13397597743E+01  0.10000000000E-01 0. -1.
      611    1    3    3    0    0  0.24359041912E-01 -0.44170581094E-01  0.84332744939E+01  0.84334312763E+01  0.10000000000E-01 0.  1.
</event>
<event>
 7   0  0.6206631E-02  0.9118800E+02  0.7818608E-02  0.1180000E+00
       11   -1    0    0    0    0  0.00000000000E+00  0.00000000000E+00  0.11999999989E+02  0.12000000000E+02  0.51109989000E-03 0. -1.
     -623   -1    0    0    0    0  0.00000000000E+00  0.00000000000E+00  0.42561509872E-11  0.25126700000E+02  0.25126700000E+02 0. -1.
      622    2    1    2    0    0  0.30274451890E-01  0.41988987807E-01  0.74968295225E+01  0.74975022529E+01  0.86066989187E-01 0.  0.
       11    1    1    2    0    0 -0.35777035740E-01 -0.29827950123E-01  0.45022532048E+01  0.45024941848E+01  0.51109989000E-03 0. -1.
     -623    1    1    2    0    0  0.55025838501E-02 -0.12161037684E-01  0.91726177960E-03  0.25126703562E+02  0.25126700000E+02 0. -1.
     -611    1    3    3    0    0 -0.79418172678E-02  0.47058912237E-01  0.22832149558E+01  0.22837355688E+01  0.10000000000E-01 0.  1.
      611    1    3    3    0    0  0.38216269158E-01 -0.50699244297E-02  0.52136145666E+01  0.52137666842E+01  0.10000000000E-01 0. -1.
</event>
<event>
 7   0  0.6206631E-02  0.9118800E+02  0.7818608E-02  0.1180000E+00
       11   -1    0    0    0    0  0.00000000000E+00  0.00000000000E+00  0.11999999989E+02  0.12000000000E+02  0.51109989000E-03 0.  1.
     -623   -1    0    0    0    0  0.00000000000E+00  0.00000000000E+00  0.42561509872E-11  0.25126700000E+02  0.25126700000E+02 0.  1.
      622    2    1    2    0    0  0.44456865107E-01 -0.25374542803E-01  0.55544809910E+01  0.55554508424E+01  0.90303390226E-01 0.  0.
       11    1    1    2    0    0 -0.52632166940E-02  0.13608340520E-02  0.64445047811E+01  0.64445070942E+01  0.51109989000E-03 0.  1.
     -623    1    1    2    0    0 -0.39193648413E-01  0.24013708751E-01  0.10142170269E-02  0.25126742063E+02  0.25126700000E+02 0.  1.
     -611    1    3    3    0    0  0.30171376863E-01 -0.37977430902E-01  0.13398550012E+01  0.13407699361E+01  0.10000000000E-01 0. -1.
      611    1    3    3    0    0  0.14285488244E-01  0.12602888099E-01  0.42146259898E+01  0.42146809063E+01  0.10000000000E-01 0.  1.
</event>
<event>
 7   0  0.6206631E-02  0.9118800E+02  0.7818608E-02  0.1180000E+00
       11   -1    0    0    0    0  0.00000000000E+00  0.00000000000E+00  0.11999999989E+02  0.12000000000E+02  0.51109989000E-03 0. -1.
     -623   -1    0    0    0    0  0.00000000000E+00  0.00000000000E+00  0.42561509872E-11  0.25126700000E+02  0.25126700000E+02 0.  1.
      622    2    1    2    0    0 -0.50512310916E-02 -0.22653840018E-01  0.11080255981E+02  0.11080775070E+02  0.10471311996E+00 0.  0.
       11    1    1    2    0    0  0.32764817495E-02  0.21787173287E-01  0.91896062474E+00  0.91922484045E+00  0.51109989000E-03 0. -1.
     -623    1    1    2    0    0  0.17747493421E-02  0.86666673182E-03  0.78338372957E-03  0.25126700090E+02  0.25126700000E+02 0.  1.
     -611    1    3    3    0    0 -0.10192050074E-02  0.21393406443E-01  0.66433619800E+00  0.66475657244E+00  0.10000000000E-01 0.  1.
      611    1    3    3    0    0 -0.40320260842E-02 -0.44047246461E-01  0.10415919783E+02  0.10416018497E+02  0.10000000000E-01 0. -1.
</event>
<event>
 7   0  0.6206631E-02  0.9118800E+02  0.7818608E-02  0.1180000E+00
       11   -1    0    0    0    0  0.00000000000E+00  0.00000000000E+00  0.11999999989E+02  0.12000000000E+02  0.51109989000E-03 0.  1.
     -623   -1    0    0    0    0  0.00000000000E+00  0.00000000000E+00  0.42561509872E-11  0.25126700000E+02  0.25126700000E+02 0. -1.
      622    2    1    2    0    0 -0.43972291696E-01  0.44557099582E-01  0.10840053896E+02  0.10840859879E+02  0.11642832660E+00 0.  0.
       11    1    1    2    0    0  0.33162835552E-01 -0.45506380006E-01  0.11577691065E+01  0.11591376835E+01  0.51109989000E-03 0.  1.
     -623    1    1    2    0    0  0.10809456144E-01  0.94928042399E-03  0.21769867569E-02  0.25126702437E+02  0.25126700000E+02 0. -1.
     -611    1    3    3    0    0 -0.15608240715E-01 -0.38729148724E-01  0.40841810856E+01  0.40844067750E+01  0.10000000000E-01 0. -1.
      611    1    3    3    0    0 -0.28364050981E-01  0.83286248306E-01  0.67558728104E+01  0.67564531042E+01  0.10000000000E-01 0.  1.
</event>
<event>
 7   0  0.6206631E-02  0.9118800E+02  0.7818608E-02  0.1180000E+00
       11   -1    0    0    0    0  0.00000000000E+00  0.00000000000E+00  0.11999999989E+02  0.12000000000E+02  0.51109989000E-03 0.  1.
     -623   -1    0    0    0    0  0.00000000000E+00  0.00000000000E+00  0.42561509872E-11  0.25126700000E+02  0.25126700000E+02 0. -1.
      622    2    1    2    0    0 -0.75835445121E-03  0.83835518030E-03  0.11908691378E+02  0.11908721305E+02  0.26674317102E-01 0.  0.
       11    1    1    2    0    0  0.10403801985E-03  0.20757760536E-02  0.91253420929E-01  0.91278517323E-01  0.51109989000E-03 0.  1.
     -623    1    1    2    0    0  0.65431643135E-03 -0.29141312339E-02  0.55190643545E-04  0.25126700178E+02  0.25126700000E+02 0. -1.
     -611    1    3    3    0    0  0.32337085697E-02  0.79433935736E-02  0.47342659067E+01  0.47342842363E+01  0.10000000000E-01 0.  1.
      611    1    3    3    0    0 -0.39920630209E-02 -0.71050383933E-02  0.71744254708E+01  0.71744370688E+01  0.10000000000E-01 0.  1.
</event>
<event>
 7   0  0.6206631E-02  0.9118800E+02  0.7818608E-02  0.1180000E+00
       11   -1    0    0    0    0  0.00000000000E+00  0.00000000000E+00  0.11999999989E+02  0.12000000000E+02  0.51109989000E-03 0. -1.
     -623   -1    0    0    0    0  0.00000000000E+00  0.00000000000E+00  0.42561509872E-11  0.25126700000E+02  0.25126700000E+02 0.  1.
      622    2    1    2    0    0 -0.25427242991E-01 -0.37803188616E-01  0.10167454211E+02  0.10168037424E+02  0.98915574399E-01 0.  0.
       11    1    1    2    0    0  0.53270292105E-01  0.62074902904E-01  0.18301081103E+01  0.18319353084E+01  0.51109989000E-03 0. -1.
     -623    1    1    2    0    0 -0.27843049114E-01 -0.24271714288E-01  0.24376675792E-02  0.25126727268E+02  0.25126700000E+02 0.  1.
     -611    1    3    3    0    0  0.83332358659E-02 -0.63532098832E-01  0.65202947305E+01  0.65206172364E+01  0.10000000000E-01 0. -1.
      611    1    3    3    0    0 -0.33760478857E-01  0.25728910216E-01  0.36471594807E+01  0.36474201875E+01  0.10000000000E-01 0.  1.
</event>
<event>
 7   0  0.6206631E-02  0.9118800E+02  0.7818608E-02  0.1180000E+00
       11   -1    0    0    0    0  0.00000000000E+00  0.00000000000E+00  0.11999999989E+02  0.12000000000E+02  0.51109989000E-03 0. -1.
     -623   -1    0    0    0    0  0.00000000000E+00  0.00000000000E+00  0.42561509872E-11  0.25126700000E+02  0.25126700000E+02 0.  1.
      622    2    1    2    0    0 -0.10633101228E-01 -0.81492097328E-02  0.10666643944E+02  0.10667106730E+02  0.98455529393E-01 0.  0.
       11    1    1    2    0    0  0.17284659104E-01  0.43599444410E-04  0.13327789003E+01  0.13328910757E+01  0.51109989000E-03 0. -1.
     -623    1    1    2    0    0 -0.66515578758E-02  0.81056102884E-02  0.57714505286E-03  0.25126702194E+02  0.25126700000E+02 0.  1.
     -611    1    3    3    0    0 -0.39250927221E-02 -0.50323916688E-02  0.10497262537E+02  0.10497269240E+02  0.10000000000E-01 0. -1.
      611    1    3    3    0    0 -0.67080085061E-02 -0.31168180640E-02  0.16938140697E+00  0.16983748986E+00  0.10000000000E-01 0. -1.
</event>
<event>
 7   0  0.6206631E-02  0.9118800E+02  0.7818608E-02  0.1180000E+00
       11   -1    0    0    0    0  0.00000000000E+00  0.00000000000E+00  0.11999999989E+02  0.12000000000E+02  0.51109989000E-03 0.  1.
     -623   -1    0    0    0    0  0.00000000000E+00  0.00000000000E+00  0.42561509872E-11  0.25126700000E+02  0.25126700000E+02 0.  1.
      622    2    1    2    0    0  0.29196238775E-01 -0.10971580135E-02  0.84340946975E+01  0.84347700325E+01  0.10265724774E+00 0.  0.
       11    1    1    2    0    0 -0.30009660426E-01 -0.14499928903E-02  0.35651031783E+01  0.35652298125E+01  0.51109989000E-03 0.  1.
     -623    1    1    2    0    0  0.81342165062E-03  0.25471509039E-02  0.80211330330E-03  0.25126700155E+02  0.25126700000E+02 0.  1.
     -611    1    3    3    0    0  0.72397337224E-02  0.44381830316E-01  0.57308465908E+01  0.57310317402E+01  0.10000000000E-01 0.  1.
      611    1    3    3    0    0  0.21956505053E-01 -0.45478988330E-01  0.27032481067E+01  0.27037382922E+01  0.10000000000E-01 0. -1.
</event>
<event>
 7   0  0.6206631E-02  0.9118800E+02  0.7818608E-02  0.1180000E+00
       11   -1    0    0    0    0  0.00000000000E+00  0.00000000000E+00  0.11999999989E+02  0.12000000000E+02  0.51109989000E-03 0.  1.
     -623   -1    0    0    0    0  0.00000000000E+00  0.00000000000E+00  0.42561509872E-11  0.25126700000E+02  0.25126700000E+02 0. -1.
      622    2    1    2    0    0  0.25570378483E-01  0.57579881360E-02  0.11449751609E+02  0.11450524589E+02  0.13043945086E+00 0.  0.
       11    1    1    2    0    0  0.13234463234E-02 -0.10122592940E-01  0.54936554076E+00  0.54946062370E+00  0.51109989000E-03 0.  1.
     -623    1    1    2    0    0 -0.26893824806E-01  0.43646048041E-02  0.88283897031E-03  0.25126714787E+02  0.25126700000E+02 0. -1.
     -611    1    3    3    0    0  0.21507062787E-01  0.20989162534E-01  0.66232196812E+00  0.66307879483E+00  0.10000000000E-01 0. -1.
      611    1    3    3    0    0  0.40633156958E-02 -0.15231174398E-01  0.10787429641E+02  0.10787445794E+02  0.10000000000E-01 0.  1.
</event>
<event>
 7   0  0.6206631E-02  0.9118800E+02  0.7818608E-02  0.1180000E+00
       11   -1    0    0    0    0  0.00000000000E+00  0.00000000000E+00  0.11999999989E+02  0.12000000000E+02  0.51109989000E-03 0.  1.
     -623   -1    0    0    0    0  0.00000000000E+00  0.00000000000E+00  0.42561509872E-11  0.25126700000E+02  0.25126700000E+02 0. -1.
      622    2    1    2    0    0  0.90310888534E-02 -0.26818663989E-01  0.99899336249E+01  0.99906525376E+01  0.11646242190E+00 0.  0.
       11    1    1    2    0    0 -0.64352406581E-02  0.28866590556E-01  0.20091294947E+01  0.20093472274E+01  0.51109989000E-03 0.  1.
     -623    1    1    2    0    0 -0.25958481953E-02 -0.20479265667E-02  0.93686947822E-03  0.25126700235E+02  0.25126700000E+02 0. -1.
     -611    1    3    3    0    0  0.37846914447E-01 -0.10551736817E-01  0.90388231151E+01  0.90389140406E+01  0.10000000000E-01 0.  1.
      611    1    3    3    0    0 -0.28815825594E-01 -0.16266927172E-01  0.95111050984E+00  0.95173849699E+00  0.10000000000E-01 0. -1.
</event>
<event>
 7   0  0.6206631E-02  0.9118800E+02  0.7818608E-02  0.1180000E+00
       11   -1    0    0    0    0  0.00000000000E+00  0.00000000000E+00  0.11999999989E+02  0.12000000000E+02  0.51109989000E-03 0.  1.
     -623   -1    0    0    0    0  0.00000000000E+00  0.00000000000E+00  0.42561509872E-11  0.25126700000E+02  0.25126700000E+02 0.  1.
      622    2    1    2    0    0 -0.11401243166E-01 -0.67207668239E-02  0.11919712091E+02  0.11920135735E+02  0.99621553893E-01 0.  0.
       11    1    1    2    0    0  0.10934215795E-01  0.76956427974E-02  0.78735304660E-01  0.79864193580E-01  0.51109989000E-03 0.  1.
     -623    1    1    2    0    0  0.46702737108E-03 -0.97487597344E-03  0.15525933670E-02  0.25126700071E+02  0.25126700000E+02 0.  1.
     -611    1    3    3    0    0 -0.50191595447E-01  0.15522144507E-01  0.54942754467E+01  0.54945357236E+01  0.10000000000E-01 0. -1.
      611    1    3    3    0    0  0.38790352282E-01 -0.22242911331E-01  0.64254366444E+01  0.64256000116E+01  0.10000000000E-01 0.  1.
</event>
<event>
 7   0  0.6206631E-02  0.9118800E+02  0.7818608E-02  0.1180000E+00
       11   -1    0    0    0    0  0.00000000000E+00  0.00000000000E+00  0.11999999989E+02  0.12000000000E+02  0.51109989000E-03 0.  1.
     -623   -1    0    0    0    0  0.00000000000E+00  0.00000000000E+00  0.42561509872E-11  0.25126700000E+02  0.25126700000E+02 0.  1.
      622    2    1    2    0    0 -0.20468827909E-01 -0.95488298039E-03  0.97943046335E+01  0.97945315316E+01  0.63441191124E-01 0.  0.
       11    1    1    2    0    0 -0.22090026812E-01 -0.19736739246E-01  0.22052248905E+01  0.22054239019E+01  0.51109989000E-03 0.  1.
     -623    1    1    2    0    0  0.42558854721E-01  0.20691622226E-01  0.47046511596E-03  0.25126744567E+02  0.25126700000E+02 0.  1.
     -611    1    3    3    0    0 -0.19351700051E-01  0.25115845805E-01  0.33167563000E+01  0.33169229185E+01  0.10000000000E-01 0. -1.
      611    1    3    3    0    0 -0.11171278578E-02 -0.26070728786E-01  0.64775483335E+01  0.64776086130E+01  0.10000000000E-01 0.  1.
</event>
<event>
 7   0  0.6206631E-02  0.9118800E+02  0.7818608E-02  0.1180000E+00
       11   -1    0    0    0    0  0.00000000000E+00  0.00000000000E+00  0.11999999989E+02  0.12000000000E+02  0.51109989000E-03 0.  1.
     -623   -1    0    0    0    0  0.00000000000E+00  0.00000000000E+00  0.42561509872E-11  0.25126700000E+02  0.25126700000E+02 0. -1.
      622    2    1    2    0    0 -0.71543183766E-02 -0.31151842877E-03  0.11921013297E+02  0.11921383080E+02  0.93622853696E-01 0.  0.
       11    1    1    2    0    0  0.77608518807E-02  0.67400006486E-02  0.77939505920E-01  0.78616068566E-01  0.51109989000E-03 0.  1.
     -623    1    1    2    0    0 -0.60653350403E-03 -0.64284822198E-02  0.10471865499E-02  0.25126700851E+02  0.25126700000E+02 0. -1.
     -611    1    3    3    0    0  0.26940572840E-01 -0.54671974023E-03  0.99993993621E+01  0.99994406692E+01  0.10000000000E-01 0.  1.
      611    1    3    3    0    0 -0.34094891216E-01  0.23520131146E-03  0.19216139345E+01  0.19219424107E+01  0.10000000000E-01 0.  1.
</event>
<event>
 6   0  0.6206631E-02  0.9118800E+02  0.7818608E-02  0.1180000E+00
       11   -1    0    0    0    0  0.00000000000E+00  0.00000000000E+00  0.11999999989E+02  0.12000000000E+02  0.51109989000E-03 0. -1.
     -623   -1    0    0    0    0  0.00000000000E+00  0.00000000000E+00  0.42561509872E-11  0.25126700000E+02  0.25126700000E+02 0.  1.
       11    1    1    2    0    0  0.22006716544E-01 -0.10237686643E-01  0.10614694339E+00  0.10888774319E+00  0.51109989000E-03 0. -1.
     -623    1    1    2    0    0  0.38123165569E-02 -0.88381381375E-02  0.44886602043E-02  0.25126702245E+02  0.25126700000E+02 0.  1.
     -611    1    1    2    0    0 -0.40800600045E-01  0.76682775088E-01  0.10574072527E+02  0.10574434015E+02  0.10000000000E-01 0. -1.
      611    1    1    2    0    0  0.14981566944E-01 -0.57606950307E-01  0.13152918584E+01  0.13166759969E+01  0.10000000000E-01 0.  1.
</event>
<event>
 7   0  0.6206631E-02  0.9118800E+02  0.7818608E-02  0.1180000E+00
       11   -1    0    0    0    0  0.00000000000E+00  0.00000000000E+00  0.11999999989E+02  0.12000000000E+02  0.51109989000E-03 0. -1.
     -623   -1    0    0    0    0  0.00000000000E+00  0.00000000000E+00  0.42561509872E-11  0.25126700000E+02  0.25126700000E+02 0. -1.
      622    2    1    2    0    0 -0.48277706118E-02 -0.19430074186E-02  0.11863077169E+02  0.11863523746E+02  0.10280401643E+00 0.  0.
       11    1    1    2    0    0  0.48857231321E-02 -0.21375005226E-02  0.13637072773E+00  0.13647591657E+00  0.51109989000E-03 0. -1.
     -623    1    1    2    0    0 -0.57952520315E-04  0.40805079412E-02  0.55209217925E-03  0.25126700337E+02  0.25126700000E+02 0. -1.
     -611    1    3    3    0    0 -0.16541473968E-01 -0.23181258940E-01  0.11014021709E+02  0.11014063065E+02  0.10000000000E-01 0. -1.
      611    1    3    3    0    0  0.11713703356E-01  0.21238251522E-01  0.84905546043E+00  0.84946068129E+00  0.10000000000E-01 0.  1.
</event>
<event>
 7   0  0.6206631E-02  0.9118800E+02  0.7818608E-02  0.1180000E+00
       11   -1    0    0    0    0  0.00000000000E+00  0.00000000000E+00  0.11999999989E+02  0.12000000000E+02  0.51109989000E-03 0. -1.
     -623   -1    0    0    0    0  0.00000000000E+00  0.00000000000E+00  0.42561509872E-11  0.25126700000E+02  0.25126700000E+02 0. -1.
      622    2    1    2    0    0 -0.80384112189E-04  0.46977185603E-02  0.11973720670E+02  0.11973876023E+02  0.60813133578E-01 0.  0.
       11    1    1    2    0    0 -0.91771398321E-03 -0.46114256468E-02  0.25692258001E-01  0.26123950501E-01  0.51109989000E-03 0. -1.
     -623    1    1    2    0    0  0.99809809540E-03 -0.86292913531E-04  0.58706066608E-03  0.25126700027E+02  0.25126700000E+02 0. -1.
     -611    1    3    3    0    0  0.24265388292E-01  0.13806019249E-01  0.41589954702E+01  0.41591011934E+01  0.10000000000E-01 0. -1.
      611    1    3    3    0    0 -0.24345772404E-01 -0.91083006885E-02  0.78147252002E+01  0.78147748293E+01  0.10000000000E-01 0. -1.
</event>
<event>
 7   0  0.6206631E-02  0.9118800E+02  0.7818608E-02  0.1180000E+00
       11   -1    0    0    0    0  0.00000000000E+00  0.00000000000E+00  0.11999999989E+02  0.12000000000E+02  0.51109989000E-03 0.  1.
     -623   -1    0    0    0    0  0.00000000000E+00  0.00000000000E+00  0.42561509872E-11  0.25126700000E+02  0.25126700000E+02 0. -1.
      622    2    1    2    0    0  0.22561412922E+00  0.21769566242E-01  0.63430288414E+01  0.63479722368E+01  0.10658793140E+00 0.  0.
       11    1    1    2    0    0 -0.24193139689E+00  0.12711486500E-02  0.56468294393E+01  0.56520098544E+01  0.51109989000E-03 0.  1.
     -623    1    1    2    0    0  0.16317267680E-01 -0.23040714892E-01  0.10141708512E-01  0.25126717909E+02  0.25126700000E+02 0. -1.
     -611    1    3    3    0    0  0.19423372752E-01 -0.30480791831E-01  0.98449432289E+00  0.98520831192E+00  0.10000000000E-01 0. -1.
      611    1    3    3    0    0  0.20619075646E+00  0.52250358073E-01  0.53585345185E+01  0.53627639249E+01  0.10000000000E-01 0.  1.
</event>
<event>
 7   0  0.6206631E-02  0.9118800E+02  0.7818608E-02  0.1180000E+00
       11   -1    0    0    0    0  0.00000000000E+00  0.00000000000E+00  0.11999999989E+02  0.12000000000E+02  0.51109989000E-03 0.  1.
     -623   -1    0    0    0    0  0.00000000000E+00  0.00000000000E+00  0.42561509872E-11  0.25126700000E+02  0.25126700000E+02 0.  1.
      622    2    1    2    0    0 -0.11255092295E-01  0.28578724631E-03  0.11878555948E+02  0.11879224022E+02  0.12547987774E+00 0.  0.
       11    1    1    2    0    0  0.88575455926E-02 -0.14090882137E-02  0.12044125344E+00  0.12077581876E+00  0.51109989000E-03 0.  1.
     -623    1    1    2    0    0  0.23975467028E-02  0.11233009674E-02  0.10027880858E-02  0.25126700160E+02  0.25126700000E+02 0.  1.
     -611    1    3    3    0    0 -0.25960281685E-01 -0.22863943415E-01  0.11180472511E+02  0.11180530500E+02  0.10000000000E-01 0.  1.
      611    1    3    3    0    0  0.14705189390E-01  0.23149730662E-01  0.69808343647E+00  0.69869352144E+00  0.10000000000E-01 0.  1.
</event>
<event>
 7   0  0.6206631E-02  0.9118800E+02  0.7818608E-02  0.1180000E+00
       11   -1    0    0    0    0  0.00000000000E+00  0.00000000000E+00  0.11999999989E+02  0.12000000000E+02  0.51109989000E-03 0.  1.
     -623   -1    0    0    0    0  0.00000000000E+00  0.00000000000E+00  0.42561509872E-11  0.25126700000E+02  0.25126700000E+02 0. -1.
      622    2    1    2    0    0 -0.37933651122E-03 -0.41261643128E-03  0.11991887465E+02  0.11992032912E+02  0.59059946030E-01 0.  0.
       11    1    1    2    0    0 -0.70554310766E-03  0.55610657962E-03  0.78997359693E-02  0.79670632678E-02  0.51109989000E-03 0.  1.
     -623    1    1    2    0    0  0.10848796189E-02 -0.14349014835E-03  0.21278823758E-03  0.25126700025E+02  0.25126700000E+02 0. -1.
     -611    1    3    3    0    0 -0.10120076947E-01  0.18957991600E-02  0.75433172899E+00  0.75446826797E+00  0.10000000000E-01 0.  1.
      611    1    3    3    0    0  0.97407404360E-02 -0.23084155913E-02  0.11237555736E+02  0.11237564644E+02  0.10000000000E-01 0.  1.
</event>
<event>
 7   0  0.6206631E-02  0.9118800E+02  0.7818608E-02  0.1180000E+00
       11   -1    0    0    0    0  0.00000000000E+00  0.00000000000E+00  0.11999999989E+02  0.12000000000E+02  0.51109989000E-03 0. -1.
     -623   -1    0    0    0    0  0.00000000000E+00  0.00000000000E+00  0.42561509872E-11  0.25126700000E+02  0.25126700000E+02 0. -1.
      622    2    1    2    0    0  0.92638818380E-01 -0.31014156818E-01  0.64657417416E+01  0.64672960082E+01  0.10274998919E+00 0.  0.
       11    1    1    2    0    0 -0.98189943939E-01  0.45254323684E-01  0.55316427070E+01  0.55326992073E+01  0.51109989000E-03 0. -1.
     -623    1    1    2    0    0  0.55511255589E-02 -0.14240166865E-01  0.26155405212E-02  0.25126704785E+02  0.25126700000E+02 0. -1.
     -611    1    3    3    0    0  0.40287446282E-01 -0.18370720053E-01  0.79829680685E+00  0.79958636401E+00  0.10000000000E-01 0.  1.
      611    1    3    3    0    0  0.52351372099E-01 -0.12643436765E-01  0.56674449348E+01  0.56677096442E+01  0.10000000000E-01 0. -1.
</event>
<event>
 7   0  0.6206631E-02  0.9118800E+02  0.7818608E-02  0.1180000E+00
       11   -1    0    0    0    0  0.00000000000E+00  0.00000000000E+00  0.11999999989E+02  0.12000000000E+02  0.51109989000E-03 0. -1.
     -623   -1    0    0    0    0  0.00000000000E+00  0.00000000000E+00  0.42561509872E-11  0.25126700000E+02  0.25126700000E+02 0. -1.
      622    2    1    2    0    0 -0.38700380172E-01  0.45071754330E-01  0.11179919256E+02  0.11180633369E+02  0.11152927405E+00 0.  0.
       11    1    1    2    0    0  0.42198072375E-01 -0.53548712699E-01  0.81652318876E+00  0.81936470570E+00  0.51109989000E-03 0. -1.
     -623    1    1    2    0    0 -0.34976922028E-02  0.84769583688E-02  0.35575442858E-02  0.25126701925E+02  0.25126700000E+02 0. -1.
     -611    1    3    3    0    0  0.10776297906E-01 -0.32677815927E-02  0.23069246661E+00  0.23118352264E+00  0.10000000000E-01 0.  1.
      611    1    3    3    0    0 -0.49476678078E-01  0.48339535922E-01  0.10949226789E+02  0.10949449846E+02  0.10000000000E-01 0. -1.
</event>
<event>
 7   0  0.6206631E-02  0.9118800E+02  0.7818608E-02  0.1180000E+00
       11   -1    0    0    0    0  0.00000000000E+00  0.00000000000E+00  0.11999999989E+02  0.12000000000E+02  0.51109989000E-03 0.  1.
     -623   -1    0    0    0    0  0.00000000000E+00  0.00000000000E+00  0.42561509872E-11  0.25126700000E+02  0.25126700000E+02 0.  1.
      622    2    1    2    0    0 -0.36367755855E-01 -0.23530253259E-01  0.82008834344E+01  0.82014993883E+01  0.90701844912E-01 0.  0.
       11    1    1    2    0    0  0.58619838574E-01 -0.16042604353E-01  0.37979733010E+01  0.37984595703E+01  0.51109989000E-03 0.  1.
     -623    1    1    2    0    0 -0.22252082719E-01  0.39572857612E-01  0.11432536905E-02  0.25126741041E+02  0.25126700000E+02 0.  1.
     -611    1    3    3    0    0 -0.22345281001E-01 -0.28156036766E-01  0.11728091784E+01  0.11734025068E+01  0.10000000000E-01 0. -1.
      611    1    3    3    0    0 -0.14022474853E-01  0.46257835070E-02  0.70280742560E+01  0.70280968815E+01  0.10000000000E-01 0.  1.
</event>
<event>
 7   0  0.6206631E-02  0.9118800E+02  0.7818608E-02  0.1180000E+00
       11   -1    0    0    0    0  0.00000000000E+00  0.00000000000E+00  0.11999999989E+02  0.12000000000E+02  0.51109989000E-03 0. -1.
     -623   -1    0    0    0    0  0.00000000000E+00  0.00000000000E+00  0.42561509872E-11  0.25126700000E+02  0.25126700000E+02 0.  1.
      622    2    1    2    0    0  0.34257892576E-03 -0.58676573835E-03  0.11939351342E+02  0.11939433554E+02  0.44301967982E-01 0.  0.
       11    1    1    2    0    0 -0.24533191467E-03  0.58657915852E-03  0.60560951548E-01  0.60566445647E-01  0.51109989000E-03 0. -1.
     -623    1    1    2    0    0 -0.97247011094E-04  0.18657983148E-06  0.87695701405E-04  0.25126700000E+02  0.25126700000E+02 0.  1.
     -611    1    3    3    0    0  0.50471332444E-02 -0.15492852366E-01  0.91757416821E+01  0.91757615988E+01  0.10000000000E-01 0. -1.
      611    1    3    3    0    0 -0.47045543187E-02  0.14906086628E-01  0.27636096598E+01  0.27636719552E+01  0.10000000000E-01 0.  1.
</event>
<event>
 7   0  0.6206631E-02  0.9118800E+02  0.7818608E-02  0.1180000E+00
       11   -1    0    0    0    0  0.00000000000E+00  0.00000000000E+00  0.11999999989E+02  0.12000000000E+02  0.51109989000E-03 0.  1.
     -623   -1    0    0    0    0  0.00000000000E+00  0.00000000000E+00  0.42561509872E-11  0.25126700000E+02  0.25126700000E+02 0.  1.
      622    2    1    2    0    0 -0.89802660659E-02 -0.22453212056E-02  0.11692733970E+02  0.11693143097E+02  0.97376081263E-01 0.  0.
       11    1    1    2    0    0  0.10389315553E-01  0.40328121098E-02  0.30665392261E+00  0.30685679222E+00  0.51109989000E-03 0.  1.
     -623    1    1    2    0    0 -0.14090494871E-02 -0.17874909042E-02  0.61209601408E-03  0.25126700111E+02  0.25126700000E+02 0.  1.
     -611    1    3    3    0    0  0.39052894199E-02  0.16086979011E-03  0.11356558867E+02  0.11356563943E+02  0.10000000000E-01 0.  1.
      611    1    3    3    0    0 -0.12885555486E-01 -0.24061909957E-02  0.33617510315E+00  0.33657915455E+00  0.10000000000E-01 0. -1.
</event>
<event>
 7   0  0.6206631E-02  0.9118800E+02  0.7818608E-02  0.1180000E+00
       11   -1    0    0    0    0  0.00000000000E+00  0.00000000000E+00  0.11999999989E+02  0.12000000000E+02  0.51109989000E-03 0. -1.
     -623   -1    0    0    0    0  0.00000000000E+00  0.00000000000E+00  0.42561509872E-11  0.25126700000E+02  0.25126700000E+02 0.  1.
      622    2    1    2    0    0  0.40587781219E-02  0.89727315314E-02  0.11695414776E+02  0.11695808980E+02  0.95519351596E-01 0.  0.
       11    1    1    2    0    0 -0.50454972625E-02 -0.80855171700E-02  0.30404121060E+00  0.30419097882E+00  0.51109989000E-03 0. -1.
     -623    1    1    2    0    0  0.98671914058E-03 -0.88721436141E-03  0.54400295918E-03  0.25126700041E+02  0.25126700000E+02 0.  1.
     -611    1    3    3    0    0 -0.29209434068E-01 -0.30455957934E-01  0.50119417193E+01  0.50121293434E+01  0.10000000000E-01 0. -1.
      611    1    3    3    0    0  0.33268212190E-01  0.39428689466E-01  0.66834730562E+01  0.66836796369E+01  0.10000000000E-01 0.  1.
</event>
<event>
 7   0  0.6206631E-02  0.9118800E+02  0.7818608E-02  0.1180000E+00
       11   -1    0    0    0    0  0.00000000000E+00  0.00000000000E+00  0.11999999989E+02  0.12000000000E+02  0.51109989000E-03 0. -1.
     -623   -1    0    0    0    0  0.00000000000E+00  0.00000000000E+00  0.42561509872E-11  0.25126700000E+02  0.25126700000E+02 0.  1.
      622    2    1    2    0    0 -0.21974763355E-01 -0.82005605230E-01  0.10824845621E+02  0.10825868328E+02  0.12220691102E+00 0.  0.
       11    1    1    2    0    0  0.11160654283E-01  0.86942191585E-01  0.11708518045E+01  0.11741284914E+01  0.51109989000E-03 0. -1.
     -623    1    1    2    0    0  0.10814109072E-01 -0.49365863549E-02  0.43025634796E-02  0.25126703180E+02  0.25126700000E+02 0.  1.
     -611    1    3    3    0    0  0.37501082931E-01 -0.10485705423E-02  0.16028595148E+01  0.16033296775E+01  0.10000000000E-01 0.  1.
      611    1    3    3    0    0 -0.59475846286E-01 -0.80957034688E-01  0.92219861064E+01  0.92225386507E+01  0.10000000000E-01 0. -1.
</event>
<event>
 7   0  0.6206631E-02  0.9118800E+02  0.7818608E-02  0.1180000E+00
       11   -1    0    0    0    0  0.00000000000E+00  0.00000000000E+00  0.11999999989E+02  0.12000000000E+02  0.51109989000E-03 0.  1.
     -623   -1    0    0    0    0  0.00000000000E+00  0.00000000000E+00  0.42561509872E-11  0.25126700000E+02  0.25126700000E+02 0. -1.
      622    2    1    2    0    0  0.49011752728E-02  0.27511713451E-02  0.11366431706E+02  0.11366913154E+02  0.10446694981E+00 0.  0.
       11    1    1    2    0    0 -0.41280154172E-02 -0.20586748111E-02  0.63306980726E+00  0.63308681927E+00  0.51109989000E-03 0.  1.
     -623    1    1    2    0    0 -0.77315985565E-03 -0.69249653403E-03  0.49847598654E-03  0.25126700026E+02  0.25126700000E+02 0. -1.
     -611    1    3    3    0    0  0.45623528584E-01 -0.23433124071E-01  0.71664993119E+01  0.71666898220E+01  0.10000000000E-01 0.  1.
      611    1    3    3    0    0 -0.40722353312E-01  0.26184295416E-01  0.41999323939E+01  0.42002233323E+01  0.10000000000E-01 0. -1.
</event>
<event>
 7   0  0.6206631E-02  0.9118800E+02  0.7818608E-02  0.1180000E+00
       11   -1    0    0    0    0  0.00000000000E+00  0.00000000000E+00  0.11999999989E+02  0.12000000000E+02  0.51109989000E-03 0. -1.
     -623   -1    0    0    0    0  0.00000000000E+00  0.00000000000E+00  0.42561509872E-11  0.25126700000E+02  0.25126700000E+02 0.  1.
      622    2    1    2    0    0 -0.58546906222E-02 -0.88141280272E-02  0.11224661715E+02  0.11225165981E+02  0.10587122722E+00 0.  0.
       11    1    1    2    0    0  0.84396364225E-03  0.11351096115E-01  0.77474960621E+00  0.77483338415E+00  0.51109989000E-03 0. -1.
     -623    1    1    2    0    0  0.50107269800E-02 -0.25369680876E-02  0.58866757236E-03  0.25126700635E+02  0.25126700000E+02 0.  1.
     -611    1    3    3    0    0 -0.26105495094E-01  0.42192254894E-01  0.53004661788E+01  0.53007078203E+01  0.10000000000E-01 0. -1.
      611    1    3    3    0    0  0.20250804472E-01 -0.51006382921E-01  0.59241955365E+01  0.59244581610E+01  0.10000000000E-01 0.  1.
</event>
<event>
 7   0  0.6206631E-02  0.9118800E+02  0.7818608E-02  0.1180000E+00
       11   -1    0    0    0    0  0.00000000000E+00  0.00000000000E+00  0.11999999989E+02  0.12000000000E+02  0.51109989000E-03 0. -1.
     -623   -1    0    0    0    0  0.00000000000E+00  0.00000000000E+00  0.42561509872E-11  0.25126700000E+02  0.25126700000E+02 0. -1.
      622    2    1    2    0    0  0.52952077283E-02  0.16181349527E-02  0.11958582141E+02  0.11959514676E+02  0.14924413239E+00 0.  0.
       11    1    1    2    0    0  0.14105096492E-02 -0.26016019306E-02  0.40372844475E-01  0.40484387907E-01  0.51109989000E-03 0. -1.
     -623    1    1    2    0    0 -0.67057173776E-02  0.98346697793E-03  0.10450035875E-02  0.25126700936E+02  0.25126700000E+02 0. -1.
     -611    1    3    3    0    0  0.42874890727E-01 -0.24323304167E-01  0.10615708535E+02  0.10615827691E+02  0.10000000000E-01 0. -1.
      611    1    3    3    0    0 -0.37579682998E-01  0.25941439119E-01  0.13428736064E+01  0.13436869849E+01  0.10000000000E-01 0.  1.
</event>
<event>
 7   0  0.6206631E-02  0.9118800E+02  0.7818608E-02  0.1180000E+00
       11   -1    0    0    0    0  0.00000000000E+00  0.00000000000E+00  0.11999999989E+02  0.12000000000E+02  0.51109989000E-03 0.  1.
     -623   -1    0    0    0    0  0.00000000000E+00  0.00000000000E+00  0.42561509872E-11  0.25126700000E+02  0.25126700000E+02 0. -1.
      622    2    1    2    0    0  0.15402039802E-03 -0.20191794942E-02  0.11981026960E+02  0.11981272423E+02  0.76666428553E-01 0.  0.
       11    1    1    2    0    0  0.71519682354E-03  0.17874946669E-02  0.18621320940E-01  0.18727558847E-01  0.51109989000E-03 0.  1.
     -623    1    1    2    0    0 -0.86921722156E-03  0.23168482722E-03  0.35170793103E-03  0.25126700019E+02  0.25126700000E+02 0. -1.
     -611    1    3    3    0    0 -0.17955498594E-01  0.31308384299E-01  0.59728841162E+01  0.59730015303E+01  0.10000000000E-01 0.  1.
      611    1    3    3    0    0  0.18109518992E-01 -0.33327563793E-01  0.60081428440E+01  0.60082708923E+01  0.10000000000E-01 0. -1.
</event>
<event>
 7   0  0.6206631E-02  0.9118800E+02  0.7818608E-02  0.1180000E+00
       11   -1    0    0    0    0  0.00000000000E+00  0.00000000000E+00  0.11999999989E+02  0.12000000000E+02  0.51109989000E-03 0.  1.
     -623   -1    0    0    0    0  0.00000000000E+00  0.00000000000E+00  0.42561509872E-11  0.25126700000E+02  0.25126700000E+02 0. -1.
      622    2    1    2    0    0  0.22755039488E-01  0.52641923987E-01  0.11651337752E+02  0.11652066447E+02  0.11701334389E+00 0.  0.
       11    1    1    2    0    0  0.40539174615E-02 -0.70068790963E-01  0.34075857138E+00  0.34791196431E+00  0.51109989000E-03 0.  1.
     -623    1    1    2    0    0 -0.26808956949E-01  0.17426866976E-01  0.79036658381E-02  0.25126721588E+02  0.25126700000E+02 0. -1.
     -611    1    3    3    0    0  0.27397160575E-01 -0.24760332971E-01  0.17410129201E+01  0.17414332219E+01  0.10000000000E-01 0. -1.
      611    1    3    3    0    0 -0.46421210869E-02  0.77402256958E-01  0.99103248318E+01  0.99106332255E+01  0.10000000000E-01 0.  1.
</event>
<event>
 7   0  0.6206631E-02  0.9118800E+02  0.7818608E-02  0.1180000E+00
       11   -1    0    0    0    0  0.00000000000E+00  0.00000000000E+00  0.11999999989E+02  0.12000000000E+02  0.51109989000E-03 0. -1.
     -623   -1    0    0    0    0  0.00000000000E+00  0.00000000000E+00  0.42561509872E-11  0.25126700000E+02  0.25126700000E+02 0. -1.
      622    2    1    2    0    0  0.37425979924E-01 -0.25053105422E-01  0.11865220988E+02  0.11865665790E+02  0.92342821057E-01 0.  0.
       11    1    1    2    0    0  0.11268302996E-02 -0.25030408516E-01  0.13189477941E+00  0.13425455357E+00  0.51109989000E-03 0. -1.
     -623    1    1    2    0    0 -0.38552810223E-01  0.50083513938E-01  0.28842219249E-02  0.25126779656E+02  0.25126700000E+02 0. -1.
     -611    1    3    3    0    0  0.13459764392E-01 -0.57663338274E-01  0.77957365350E+01  0.77959678263E+01  0.10000000000E-01 0. -1.
      611    1    3    3    0    0  0.23966215531E-01  0.32610232852E-01  0.40694844528E+01  0.40696979640E+01  0.10000000000E-01 0.  1.
</event>
<event>
 7   0  0.6206631E-02  0.9118800E+02  0.7818608E-02  0.1180000E+00
       11   -1    0    0    0    0  0.00000000000E+00  0.00000000000E+00  0.11999999989E+02  0.12000000000E+02  0.51109989000E-03 0. -1.
     -623   -1    0    0    0    0  0.00000000000E+00  0.00000000000E+00  0.42561509872E-11  0.25126700000E+02  0.25126700000E+02 0. -1.
      622    2    1    2    0    0 -0.13995290428E-01  0.15760256349E-01  0.75674388683E+01  0.75679105511E+01  0.81821941693E-01 0.  0.
       11    1    1    2    0    0  0.14553892942E-01 -0.27958602674E-02  0.44320612861E+01  0.44320860932E+01  0.51109989000E-03 0. -1.
     -623    1    1    2    0    0 -0.55860251349E-03 -0.12964396082E-01  0.49983476807E-03  0.25126703356E+02  0.25126700000E+02 0. -1.
     -611    1    3    3    0    0  0.91327452572E-02 -0.18380225022E-01  0.76797344681E+00  0.76831273236E+00  0.10000000000E-01 0.  1.
      611    1    3    3    0    0 -0.23128035685E-01  0.34140481371E-01  0.67994654215E+01  0.67995978187E+01  0.10000000000E-01 0. -1.
</event>
<event>
 7   0  0.6206631E-02  0.9118800E+02  0.7818608E-02  0.1180000E+00
       11   -1    0    0    0    0  0.00000000000E+00  0.00000000000E+00  0.11999999989E+02  0.12000000000E+02  0.51109989000E-03 0.  1.
     -623   -1    0    0    0    0  0.00000000000E+00  0.00000000000E+00  0.42561509872E-11  0.25126700000E+02  0.25126700000E+02 0. -1.
      622    2    1    2    0    0 -0.96863645497E-02 -0.57976865473E-02  0.11205826132E+02  0.11206144819E+02  0.83755406897E-01 0.  0.
       11    1    1    2    0    0  0.45012090176E-02  0.23311413166E-01  0.79349325747E+00  0.79384853325E+00  0.51109989000E-03 0.  1.
     -623    1    1    2    0    0  0.51851555321E-02 -0.17513726619E-01  0.68059994289E-03  0.25126706648E+02  0.25126700000E+02 0. -1.
     -611    1    3    3    0    0 -0.40177461041E-01  0.97110672527E-02  0.39021308927E+01  0.39023626224E+01  0.10000000000E-01 0. -1.
      611    1    3    3    0    0  0.30491096491E-01 -0.15508753800E-01  0.73036952390E+01  0.73037821964E+01  0.10000000000E-01 0.  1.
</event>
<event>
 7   0  0.6206631E-02  0.9118800E+02  0.7818608E-02  0.1180000E+00
       11   -1    0    0    0    0  0.00000000000E+00  0.00000000000E+00  0.11999999989E+02  0.12000000000E+02  0.51109989000E-03 0.  1.
     -623   -1    0    0    0    0  0.00000000000E+00  0.00000000000E+00  0.42561509872E-11  0.25126700000E+02  0.25126700000E+02 0. -1.
      622    2    1    2    0    0  0.10066259884E+00 -0.16281113733E+00  0.43990387462E+01  0.44047602509E+01  0.11717743710E+00 0.  0.
       11    1    1    2    0    0 -0.79230680036E-01  0.21089448804E+00  0.75918409986E+01  0.75951829468E+01  0.51109989000E-03 0.  1.
     -623    1    1    2    0    0 -0.21431918802E-01 -0.48083350705E-01  0.91202443114E-02  0.25126756802E+02  0.25126700000E+02 0. -1.
     -611    1    3    3    0    0  0.90184879812E-01 -0.14076060331E+00  0.25307101397E+01  0.25362453886E+01  0.10000000000E-01 0.  1.
      611    1    3    3    0    0  0.10477719026E-01 -0.22050534019E-01  0.18683286065E+01  0.18685148622E+01  0.10000000000E-01 0. -1.
</event>
<event>
 7   0  0.6206631E-02  0.9118800E+02  0.7818608E-02  0.1180000E+00
       11   -1    0    0    0    0  0.00000000000E+00  0.00000000000E+00  0.11999999989E+02  0.12000000000E+02  0.51109989000E-03 0.  1.
     -623   -1    0    0    0    0  0.00000000000E+00  0.00000000000E+00  0.42561509872E-11  0.25126700000E+02  0.25126700000E+02 0. -1.
      622    2    1    2    0    0 -0.36569527324E-02 -0.24302574539E-01  0.84898125536E+01  0.84901962635E+01  0.76885694309E-01 0.  0.
       11    1    1    2    0    0 -0.41871731373E-01  0.98141338655E-01  0.35080315409E+01  0.35096539028E+01  0.51109989000E-03 0.  1.
     -623    1    1    2    0    0  0.45528684105E-01 -0.73838764116E-01  0.21558946064E-02  0.25126849834E+02  0.25126700000E+02 0. -1.
     -611    1    3    3    0    0  0.14448459838E-01 -0.43512413034E-01  0.66670722221E+01  0.66672373666E+01  0.10000000000E-01 0.  1.
      611    1    3    3    0    0 -0.18105412570E-01  0.19209838495E-01  0.18227403315E+01  0.18229588969E+01  0.10000000000E-01 0. -1.
</event>
<event>
 7   0  0.6206631E-02  0.9118800E+02  0.7818608E-02  0.1180000E+00
       11   -1    0    0    0    0  0.00000000000E+00  0.00000000000E+00  0.11999999989E+02  0.12000000000E+02  0.51109989000E-03 0. -1.
     -623   -1    0    0    0    0  0.00000000000E+00  0.00000000000E+00  0.42561509872E-11  0.25126700000E+02  0.25126700000E+02 0. -1.
      622    2    1    2    0    0  0.78751677763E-02 -0.31397992151E-01  0.11692995194E+02  0.11693317442E+02  0.80550269869E-01 0.  0.
       11    1    1    2    0    0 -0.10647063865E-01  0.32941590816E-01  0.30472156979E+00  0.30668225364E+00  0.51109989000E-03 0. -1.
     -623    1    1    2    0    0  0.27718960891E-02 -0.15435986648E-02  0.22832252485E-02  0.25126700304E+02  0.25126700000E+02 0. -1.
     -611    1    3    3    0    0 -0.32904506308E-01 -0.13992934487E-04  0.46340558604E+01  0.46341834689E+01  0.10000000000E-01 0. -1.
      611    1    3    3    0    0  0.40779674084E-01 -0.31383999217E-01  0.70589393337E+01  0.70591339734E+01  0.10000000000E-01 0.  1.
</event>
<event>
 7   0  0.6206631E-02  0.9118800E+02  0.7818608E-02  0.1180000E+00
       11   -1    0    0    0    0  0.00000000000E+00  0.00000000000E+00  0.11999999989E+02  0.12000000000E+02  0.51109989000E-03 0. -1.
     -623   -1    0    0    0    0  0.00000000000E+00  0.00000000000E+00  0.42561509872E-11  0.25126700000E+02  0.25126700000E+02 0.  1.
      622    2    1    2    0    0  0.51877183785E-03  0.38451566738E-02  0.11910007287E+02  0.11910524528E+02  0.11093186735E+00 0.  0.
       11    1    1    2    0    0 -0.90132465416E-03 -0.47511977072E-02  0.89343201945E-01  0.89475444803E-01  0.51109989000E-03 0. -1.
     -623    1    1    2    0    0  0.38255281631E-03  0.90604103339E-03  0.64949969007E-03  0.25126700028E+02  0.25126700000E+02 0.  1.
     -611    1    3    3    0    0  0.52357918052E-02 -0.50565825137E-01  0.72794886672E+01  0.72796730402E+01  0.10000000000E-01 0.  1.
      611    1    3    3    0    0 -0.47170199674E-02  0.54410981811E-01  0.46305186202E+01  0.46308514873E+01  0.10000000000E-01 0. -1.
</event>
<event>
 7   0  0.6206631E-02  0.9118800E+02  0.7818608E-02  0.1180000E+00
       11   -1    0    0    0    0  0.00000000000E+00  0.00000000000E+00  0.11999999989E+02  0.12000000000E+02  0.51109989000E-03 0.  1.
     -623   -1    0    0    0    0  0.00000000000E+00  0.00000000000E+00  0.42561509872E-11  0.25126700000E+02  0.25126700000E+02 0. -1.
      622    2    1    2    0    0  0.64420856029E-02  0.77312726266E-02  0.11326110082E+02  0.11326273839E+02  0.60068358500E-01 0.  0.
       11    1    1    2    0    0  0.38863804881E-01  0.26004861630E-01  0.67203749093E+00  0.67366259997E+00  0.51109989000E-03 0.  1.
     -623    1    1    2    0    0 -0.45305890484E-01 -0.33736134257E-01  0.18524163355E-02  0.25126763561E+02  0.25126700000E+02 0. -1.
     -611    1    3    3    0    0  0.15897458178E-01  0.69716753251E-02  0.10670856932E+02  0.10670875737E+02  0.10000000000E-01 0.  1.
      611    1    3    3    0    0 -0.94553725747E-02  0.75959730148E-03  0.65525315025E+00  0.65539810190E+00  0.10000000000E-01 0. -1.
</event>
<event>
 7   0  0.6206631E-02  0.9118800E+02  0.7818608E-02  0.1180000E+00
       11   -1    0    0    0    0  0.00000000000E+00  0.00000000000E+00  0.11999999989E+02  0.12000000000E+02  0.51109989000E-03 0. -1.
     -623   -1    0    0    0    0  0.00000000000E+00  0.00000000000E+00  0.42561509872E-11  0.25126700000E+02  0.25126700000E+02 0.  1.
      622    2    1    2    0    0 -0.98648491590E-02  0.86063804032E-02  0.11784425464E+02  0.11784817964E+02  0.95286728619E-01 0.  0.
       11    1    1    2    0    0  0.10589168794E-01 -0.77784380729E-02  0.21477988013E+00  0.21518199908E+00  0.51109989000E-03 0. -1.
     -623    1    1    2    0    0 -0.72431963467E-03 -0.82794233023E-03  0.79464546046E-03  0.25126700037E+02  0.25126700000E+02 0.  1.
     -611    1    3    3    0    0 -0.19762244105E-01 -0.37650460040E-01  0.73289238037E+01  0.73290539788E+01  0.10000000000E-01 0.  1.
      611    1    3    3    0    0  0.98973949457E-02  0.46256840443E-01  0.44555016598E+01  0.44557639855E+01  0.10000000000E-01 0. -1.
</event>
<event>
 7   0  0.6206631E-02  0.9118800E+02  0.7818608E-02  0.1180000E+00
       11   -1    0    0    0    0  0.00000000000E+00  0.00000000000E+00  0.11999999989E+02  0.12000000000E+02  0.51109989000E-03 0. -1.
     -623   -1    0    0    0    0  0.00000000000E+00  0.00000000000E+00  0.42561509872E-11  0.25126700000E+02  0.25126700000E+02 0.  1.
      622    2    1    2    0    0  0.13933530142E-01 -0.24977863685E-01  0.56914657143E+01  0.56927802616E+01  0.11894155481E+00 0.  0.
       11    1    1    2    0    0 -0.15042190630E-01  0.24992597996E-01  0.63071522006E+01  0.63072196759E+01  0.51109989000E-03 0. -1.
     -623    1    1    2    0    0  0.11086604875E-02 -0.14734311764E-04  0.13820742563E-02  0.25126700062E+02  0.25126700000E+02 0.  1.
     -611    1    3    3    0    0  0.20685528041E-01  0.61506117542E-02  0.23268881425E+00  0.23390127270E+00  0.10000000000E-01 0. -1.
      611    1    3    3    0    0 -0.67519978988E-02 -0.31128475439E-01  0.54587769000E+01  0.54588789889E+01  0.10000000000E-01 0. -1.
</event>
<event>
 7   0  0.6206631E-02  0.9118800E+02  0.7818608E-02  0.1180000E+00
       11   -1    0    0    0    0  0.00000000000E+00  0.00000000000E+00  0.11999999989E+02  0.12000000000E+02  0.51109989000E-03 0.  1.
     -623   -1    0    0    0    0  0.00000000000E+00  0.00000000000E+00  0.42561509872E-11  0.25126700000E+02  0.25126700000E+02 0.  1.
      622    2    1    2    0    0  0.24683342910E-01 -0.23377444792E-01  0.11629634729E+02  0.11630324814E+02  0.12204739627E+00 0.  0.
       11    1    1    2    0    0  0.22810725760E-02  0.32393167913E-01  0.36822955029E+00  0.36965900983E+00  0.51109989000E-03 0.  1.
     -623    1    1    2    0    0 -0.26964415486E-01 -0.90157231205E-02  0.21357097322E-02  0.25126716176E+02  0.25126700000E+02 0.  1.
     -611    1    3    3    0    0  0.56695581843E-01 -0.27957950314E-01  0.10471383359E+02  0.10471578940E+02  0.10000000000E-01 0.  1.
      611    1    3    3    0    0 -0.32012238932E-01  0.45805055217E-02  0.11582513701E+01  0.11587458741E+01  0.10000000000E-01 0. -1.
</event>
<event>
 7   0  0.6206631E-02  0.9118800E+02  0.7818608E-02  0.1180000E+00
       11   -1    0    0    0    0  0.00000000000E+00  0.00000000000E+00  0.11999999989E+02  0.12000000000E+02  0.51109989000E-03 0. -1.
     -623   -1    0    0    0    0  0.00000000000E+00  0.00000000000E+00  0.42561509872E-11  0.25126700000E+02  0.25126700000E+02 0. -1.
      622    2    1    2    0    0 -0.34705348572E-02  0.25209546764E-02  0.10546156831E+02  0.10546664548E+02  0.10339624181E+00 0.  0.
       11    1    1    2    0    0  0.46472470673E-02 -0.19932446446E-02  0.14533265264E+01  0.14533354132E+01  0.51109989000E-03 0. -1.
     -623    1    1    2    0    0 -0.11767122101E-02 -0.52771003183E-03  0.51663134108E-03  0.25126700038E+02  0.25126700000E+02 0. -1.
     -611    1    3    3    0    0  0.45685526966E-01  0.15646288693E-01  0.40370690797E+01  0.40373702738E+01  0.10000000000E-01 0. -1.
      611    1    3    3    0    0 -0.49156061823E-01 -0.13125334017E-01  0.65090877517E+01  0.65092942745E+01  0.10000000000E-01 0.  1.
</event>
<event>
 7   0  0.6206631E-02  0.9118800E+02  0.7818608E-02  0.1180000E+00
       11   -1    0    0    0    0  0.00000000000E+00  0.00000000000E+00  0.11999999989E+02  0.12000000000E+02  0.51109989000E-03 0.  1.
     -623   -1    0    0    0    0  0.00000000000E+00  0.00000000000E+00  0.42561509872E-11  0.25126700000E+02  0.25126700000E+02 0. -1.
      622    2    1    2    0    0 -0.25407440818E-01  0.56289876081E-02  0.11652883833E+02  0.11653422576E+02  0.10899035404E+00 0.  0.
       11    1    1    2    0    0  0.18736538707E-01 -0.15665504471E-01  0.34571252952E+00  0.34657449445E+00  0.51109989000E-03 0.  1.
     -623    1    1    2    0    0  0.66709021105E-02  0.10036516863E-01  0.14036267488E-02  0.25126702929E+02  0.25126700000E+02 0. -1.
     -611    1    3    3    0    0 -0.47979662288E-01  0.16732076616E-01  0.10768544391E+02  0.10768668920E+02  0.10000000000E-01 0.  1.
      611    1    3    3    0    0  0.22572221470E-01 -0.11103089008E-01  0.88433944180E+00  0.88475365616E+00  0.10000000000E-01 0. -1.
</event>
<event>
 7   0  0.6206631E-02  0.9118800E+02  0.7818608E-02  0.1180000E+00
       11   -1    0    0    0    0  0.00000000000E+00  0.00000000000E+00  0.11999999989E+02  0.12000000000E+02  0.51109989000E-03 0.  1.
     -623   -1    0    0    0    0  0.00000000000E+00  0.00000000000E+00  0.42561509872E-11  0.25126700000E+02  0.25126700000E+02 0.  1.
      622    2    1    2    0    0  0.35143921766E-02  0.37702314943E-02  0.11956175224E+02  0.11956909836E+02  0.13243967711E+00 0.  0.
       11    1    1    2    0    0 -0.86087358485E-03 -0.28694944335E-03  0.43077183139E-01  0.43089771102E-01  0.51109989000E-03 0.  1.
     -623    1    1    2    0    0 -0.26535185918E-02 -0.34832820510E-02  0.74758152603E-03  0.25126700393E+02  0.25126700000E+02 0.  1.
     -611    1    3    3    0    0 -0.14270389501E-01 -0.16991447817E-01  0.42404993850E+00  0.42474781183E+00  0.10000000000E-01 0. -1.
      611    1    3    3    0    0  0.17784781678E-01  0.20761679312E-01  0.11532125286E+02  0.11532162024E+02  0.10000000000E-01 0.  1.
</event>
<event>
 7   0  0.6206631E-02  0.9118800E+02  0.7818608E-02  0.1180000E+00
       11   -1    0    0    0    0  0.00000000000E+00  0.00000000000E+00  0.11999999989E+02  0.12000000000E+02  0.51109989000E-03 0.  1.
     -623   -1    0    0    0    0  0.00000000000E+00  0.00000000000E+00  0.42561509872E-11  0.25126700000E+02  0.25126700000E+02 0.  1.
      622    2    1    2    0    0 -0.18538616611E-02  0.45337669695E-02  0.73843941589E+01  0.73848975340E+01  0.86084268360E-01 0.  0.
       11    1    1    2    0    0 -0.16324784582E-02 -0.53682784890E-02  0.46150987660E+01  0.46151022052E+01  0.51109989000E-03 0.  1.
     -623    1    1    2    0    0  0.34863401194E-02  0.83451151946E-03  0.50706423327E-03  0.25126700261E+02  0.25126700000E+02 0.  1.
     -611    1    3    3    0    0 -0.20410489750E-01  0.27246392659E-01  0.61893272690E+01  0.61894289718E+01  0.10000000000E-01 0.  1.
      611    1    3    3    0    0  0.18556628089E-01 -0.22712625689E-01  0.11950668899E+01  0.11954685622E+01  0.10000000000E-01 0. -1.
</event>
<event>
 7   0  0.6206631E-02  0.9118800E+02  0.7818608E-02  0.1180000E+00
       11   -1    0    0    0    0  0.00000000000E+00  0.00000000000E+00  0.11999999989E+02  0.12000000000E+02  0.51109989000E-03 0. -1.
     -623   -1    0    0    0    0  0.00000000000E+00  0.00000000000E+00  0.42561509872E-11  0.25126700000E+02  0.25126700000E+02 0.  1.
      622    2    1    2    0    0 -0.11225831394E-01  0.60272975776E-02  0.11794014762E+02  0.11794562132E+02  0.11291289946E+00 0.  0.
       11    1    1    2    0    0  0.89960086551E-02 -0.56645549230E-02  0.20516187241E+00  0.20543775327E+00  0.51109989000E-03 0. -1.
     -623    1    1    2    0    0  0.22298227389E-02 -0.36274265453E-03  0.82335465194E-03  0.25126700115E+02  0.25126700000E+02 0.  1.
     -611    1    3    3    0    0  0.36328352550E-02 -0.43546552305E-01  0.25277714885E+01  0.25281689417E+01  0.10000000000E-01 0.  1.
      611    1    3    3    0    0 -0.14858666649E-01  0.49573849883E-01  0.92662432736E+01  0.92663931900E+01  0.10000000000E-01 0. -1.
</event>
<event>
 7   0  0.6206631E-02  0.9118800E+02  0.7818608E-02  0.1180000E+00
       11   -1    0    0    0    0  0.00000000000E+00  0.00000000000E+00  0.11999999989E+02  0.12000000000E+02  0.51109989000E-03 0. -1.
     -623   -1    0    0    0    0  0.00000000000E+00  0.00000000000E+00  0.42561509872E-11  0.25126700000E+02  0.25126700000E+02 0.  1.
      622    2    1    2    0    0 -0.92019579275E-02  0.83167719798E-01  0.26374403237E+01  0.26395839697E+01  0.65654597512E-01 0.  0.
       11    1    1    2    0    0  0.13840758127E-01 -0.74181169433E-01  0.93601096816E+01  0.93604138757E+01  0.51109989000E-03 0. -1.
     -623    1    1    2    0    0 -0.46388001998E-02 -0.89865503645E-02  0.24499838897E-02  0.25126702155E+02  0.25126700000E+02 0.  1.
     -611    1    3    3    0    0  0.52623029772E-02  0.57410675315E-01  0.91908977787E+00  0.92095043148E+00  0.10000000000E-01 0. -1.
      611    1    3    3    0    0 -0.14464260905E-01  0.25757044483E-01  0.17183505458E+01  0.17186335382E+01  0.10000000000E-01 0. -1.
</event>
<event>
 7   0  0.6206631E-02  0.9118800E+02  0.7818608E-02  0.1180000E+00
       11   -1    0    0    0    0  0.00000000000E+00  0.00000000000E+00  0.11999999989E+02  0.12000000000E+02  0.51109989000E-03 0. -1.
     -623   -1    0    0    0    0  0.00000000000E+00  0.00000000000E+00  0.42561509872E-11  0.25126700000E+02  0.25126700000E+02 0. -1.
      622    2    1    2    0    0  0.17923810434E-02  0.15457632773E-02  0.11836130573E+02  0.11836186422E+02  0.36283303196E-01 0.  0.
       11    1    1    2    0    0 -0.20441475866E-02 -0.24700034982E-03  0.16379980545E+00  0.16381354351E+00  0.51109989000E-03 0. -1.
     -623    1    1    2    0    0  0.25176654322E-03 -0.12987629275E-02  0.69611308582E-04  0.25126700035E+02  0.25126700000E+02 0. -1.
     -611    1    3    3    0    0 -0.89919699973E-02  0.21811309564E-02  0.20738617619E+01  0.20739065119E+01  0.10000000000E-01 0. -1.
      611    1    3    3    0    0  0.10784351041E-01 -0.63536767903E-03  0.97622688107E+01  0.97622799098E+01  0.10000000000E-01 0. -1.
</event>
<event>
 7   0  0.6206631E-02  0.9118800E+02  0.7818608E-02  0.1180000E+00
       11   -1    0    0    0    0  0.00000000000E+00  0.00000000000E+00  0.11999999989E+02  0.12000000000E+02  0.51109989000E-03 0. -1.
     -623   -1    0    0    0    0  0.00000000000E+00  0.00000000000E+00  0.42561509872E-11  0.25126700000E+02  0.25126700000E+02 0.  1.
      622    2    1    2    0    0  0.16642114945E-01  0.15587401255E+00  0.10788040941E+02  0.10789800069E+02  0.11569154167E+00 0.  0.
       11    1    1    2    0    0 -0.28053381181E-01 -0.19528439574E+00  0.11939698319E+01  0.12101599928E+01  0.51109989000E-03 0. -1.
     -623    1    1    2    0    0  0.11411266235E-01  0.39410383192E-01  0.17989216463E-01  0.25126739938E+02  0.25126700000E+02 0.  1.
     -611    1    3    3    0    0 -0.42521752212E-02  0.15315782316E+00  0.69839007159E+01  0.69855883510E+01  0.10000000000E-01 0. -1.
      611    1    3    3    0    0  0.20894290167E-01  0.27161893871E-02  0.38041402248E+01  0.38042117185E+01  0.10000000000E-01 0.  1.
</event>
<event>
 7   0  0.6206631E-02  0.9118800E+02  0.7818608E-02  0.1180000E+00
       11   -1    0    0    0    0  0.00000000000E+00  0.00000000000E+00  0.11999999989E+02  0.12000000000E+02  0.51109989000E-03 0. -1.
     -623   -1    0    0    0    0  0.00000000000E+00  0.00000000000E+00  0.42561509872E-11  0.25126700000E+02  0.25126700000E+02 0.  1.
      622    2    1    2    0    0  0.12003249230E-01  0.99658762315E-02  0.97837196701E+01  0.97840947448E+01  0.84237732102E-01 0.  0.
       11    1    1    2    0    0  0.44104175293E-02  0.15341363808E-01  0.22158295899E+01  0.22158871456E+01  0.51109989000E-03 0. -1.
     -623    1    1    2    0    0 -0.16413666760E-01 -0.25307240039E-01  0.45072907314E-03  0.25126718110E+02  0.25126700000E+02 0.  1.
     -611    1    3    3    0    0  0.21519068628E-02  0.49771470970E-02  0.94825657766E+01  0.94825725998E+01  0.10000000000E-01 0. -1.
      611    1    3    3    0    0  0.98513423676E-02  0.49887291346E-02  0.30115389349E+00  0.30152214500E+00  0.10000000000E-01 0. -1.
</event>
<event>
 7   0  0.6206631E-02  0.9118800E+02  0.7818608E-02  0.1180000E+00
       11   -1    0    0    0    0  0.00000000000E+00  0.00000000000E+00  0.11999999989E+02  0.12000000000E+02  0.51109989000E-03 0.  1.
     -623   -1    0    0    0    0  0.00000000000E+00  0.00000000000E+00  0.42561509872E-11  0.25126700000E+02  0.25126700000E+02 0. -1.
      622    2    1    2    0    0 -0.11406092044E-01  0.21411107415E-01  0.11983526956E+02  0.11984674173E+02  0.16403720917E+00 0.  0.
       11    1    1    2    0    0  0.15126099909E-01 -0.20636118048E-02  0.10869025187E-02  0.15313391928E-01  0.51109989000E-03 0.  1.
     -623    1    1    2    0    0 -0.37200078650E-02 -0.19347495610E-01  0.15386130976E-01  0.25126712435E+02  0.25126700000E+02 0. -1.
     -611    1    3    3    0    0 -0.21525708899E-01 -0.29991582519E-01  0.10665439776E+02  0.10665508355E+02  0.10000000000E-01 0.  1.
      611    1    3    3    0    0  0.10119616855E-01  0.51402689934E-01  0.13180871799E+01  0.13191658186E+01  0.10000000000E-01 0. -1.
</event>
<event>
 7   0  0.6206631E-02  0.9118800E+02  0.7818608E-02  0.1180000E+00
       11   -1    0    0    0    0  0.00000000000E+00  0.00000000000E+00  0.11999999989E+02  0.12000000000E+02  0.51109989000E-03 0. -1.
     -623   -1    0    0    0    0  0.00000000000E+00  0.00000000000E+00  0.42561509872E-11  0.25126700000E+02  0.25126700000E+02 0.  1.
      622    2    1    2    0    0  0.76170255594E-03 -0.39659733064E-01  0.11625391509E+02  0.11625865798E+02  0.97233407519E-01 0.  0.
       11    1    1    2    0    0  0.21268314628E-02  0.30426099252E-01  0.37288661932E+00  0.37413228011E+00  0.51109989000E-03 0. -1.
     -623    1    1    2    0    0 -0.28885340188E-02  0.92336338116E-02  0.17218603044E-02  0.25126701922E+02  0.25126700000E+02 0.  1.
     -611    1    3    3    0    0  0.32477480067E-01  0.60301602746E-02  0.19227694047E+01  0.19230791281E+01  0.10000000000E-01 0.  1.
      611    1    3    3    0    0 -0.31715777511E-01 -0.45689893338E-01  0.97026221048E+01  0.97027866701E+01  0.10000000000E-01 0. -1.
</event>
<event>
 7   0  0.6206631E-02  0.9118800E+02  0.7818608E-02  0.1180000E+00
       11   -1    0    0    0    0  0.00000000000E+00  0.00000000000E+00  0.11999999989E+02  0.12000000000E+02  0.51109989000E-03 0. -1.
     -623   -1    0    0    0    0  0.00000000000E+00  0.00000000000E+00  0.42561509872E-11  0.25126700000E+02  0.25126700000E+02 0. -1.
      622    2    1    2    0    0  0.41338908228E-02 -0.48217738995E-03  0.11978596955E+02  0.11979126709E+02  0.11258051583E+00 0.  0.
       11    1    1    2    0    0  0.19616691982E-01 -0.32132062485E-02  0.62947960363E-02  0.20857252431E-01  0.51109989000E-03 0. -1.
     -623    1    1    2    0    0 -0.23750582804E-01  0.36953836385E-02  0.15108238079E-01  0.25126716039E+02  0.25126700000E+02 0. -1.
     -611    1    3    3    0    0  0.49510720983E-01  0.28304813124E-01  0.64092657368E+01  0.64095272649E+01  0.10000000000E-01 0. -1.
      611    1    3    3    0    0 -0.45376830160E-01 -0.28786990514E-01  0.55693312181E+01  0.55695994438E+01  0.10000000000E-01 0.  1.
</event>
<event>
 7   0  0.6206631E-02  0.9118800E+02  0.7818608E-02  0.1180000E+00
       11   -1    0    0    0    0  0.00000000000E+00  0.00000000000E+00  0.11999999989E+02  0.12000000000E+02  0.51109989000E-03 0. -1.
     -623   -1    0    0    0    0  0.00000000000E+00  0.00000000000E+00  0.42561509872E-11  0.25126700000E+02  0.25126700000E+02 0.  1.
      622    2    1    2    0    0  0.56899517078E-02 -0.63713399298E-03  0.11949663301E+02  0.11950044155E+02  0.95234053983E-01 0.  0.
       11    1    1    2    0    0 -0.18787849187E-02  0.14367628689E-02  0.49896899356E-01  0.49955539320E-01  0.51109989000E-03 0. -1.
     -623    1    1    2    0    0 -0.38111667892E-02 -0.79962887595E-03  0.43978899878E-03  0.25126700306E+02  0.25126700000E+02 0.  1.
     -611    1    3    3    0    0 -0.40561068683E-01 -0.73457332045E-02  0.37145158169E+01  0.37147579886E+01  0.10000000000E-01 0. -1.
      611    1    3    3    0    0  0.46251020391E-01  0.67085992115E-02  0.82351474839E+01  0.82352861664E+01  0.10000000000E-01 0.  1.
</event>
<event>
 7   0  0.6206631E-02  0.9118800E+02  0.7818608E-02  0.1180000E+00
       11   -1    0    0    0    0  0.00000000000E+00  0.00000000000E+00  0.11999999989E+02  0.12000000000E+02  0.51109989000E-03 0.  1.
     -623   -1    0    0    0    0  0.00000000000E+00  0.00000000000E+00  0.42561509872E-11  0.25126700000E+02  0.25126700000E+02 0.  1.
      622    2    1    2    0    0  0.88304067612E-02 -0.92748917380E-02  0.11734728501E+02  0.11735132272E+02  0.96501046567E-01 0.  0.
       11    1    1    2    0    0  0.41327119121E-02  0.81725304300E-02  0.26470548705E+00  0.26486435331E+00  0.51109989000E-03 0.  1.
     -623    1    1    2    0    0 -0.12963118673E-01  0.11023613080E-02  0.56600095462E-03  0.25126703374E+02  0.25126700000E+02 0.  1.
     -611    1    3    3    0    0 -0.45565626003E-02 -0.87696236378E-03  0.15614887173E+00  0.15653754012E+00  0.10000000000E-01 0. -1.
      611    1    3    3    0    0  0.13386969362E-01 -0.83979293742E-02  0.11578579629E+02  0.11578594732E+02  0.10000000000E-01 0.  1.
</event>
<event>
 7   0  0.6206631E-02  0.9118800E+02  0.7818608E-02  0.1180000E+00
       11   -1    0    0    0    0  0.00000000000E+00  0.00000000000E+00  0.11999999989E+02  0.12000000000E+02  0.51109989000E-03 0.  1.
     -623   -1    0    0    0    0  0.00000000000E+00  0.00000000000E+00  0.42561509872E-11  0.25126700000E+02  0.25126700000E+02 0.  1.
      622    2    1    2    0    0 -0.73259609288E-03  0.54320054761E-03  0.11990104182E+02  0.11991127478E+02  0.15664943504E+00 0.  0.
       11    1    1    2    0    0  0.13164231888E-02  0.16490812317E-02  0.86026498891E-02  0.88723867799E-02  0.51109989000E-03 0.  1.
     -623    1    1    2    0    0 -0.58382709588E-03 -0.21922817793E-02  0.12931568245E-02  0.25126700136E+02  0.25126700000E+02 0.  1.
     -611    1    3    3    0    0 -0.28551172917E-01 -0.33686468425E-01  0.11024201015E+01  0.11033494586E+01  0.10000000000E-01 0. -1.
      611    1    3    3    0    0  0.27818576824E-01  0.34229668973E-01  0.10887684081E+02  0.10887778019E+02  0.10000000000E-01 0.  1.
</event>
<event>
 7   0  0.6206631E-02  0.9118800E+02  0.7818608E-02  0.1180000E+00
       11   -1    0    0    0    0  0.00000000000E+00  0.00000000000E+00  0.11999999989E+02  0.12000000000E+02  0.51109989000E-03 0. -1.
     -623   -1    0    0    0    0  0.00000000000E+00  0.00000000000E+00  0.42561509872E-11  0.25126700000E+02  0.25126700000E+02 0. -1.
      622    2    1    2    0    0  0.13036371774E-01 -0.17574609692E-01  0.85238983281E+01  0.85244571784E+01  0.95124464961E-01 0.  0.
       11    1    1    2    0    0 -0.20840966689E-01 -0.38754572267E-02  0.34754677607E+01  0.34755324458E+01  0.51109989000E-03 0. -1.
     -623    1    1    2    0    0  0.78045949156E-02  0.21450066919E-01  0.63390028115E-03  0.25126710376E+02  0.25126700000E+02 0. -1.
     -611    1    3    3    0    0 -0.38387765058E-01 -0.12774039121E-01  0.48972641156E+01  0.48974414356E+01  0.10000000000E-01 0. -1.
      611    1    3    3    0    0  0.51424136832E-01 -0.48005705704E-02  0.36266342125E+01  0.36270157428E+01  0.10000000000E-01 0.  1.
</event>
<event>
 7   0  0.6206631E-02  0.9118800E+02  0.7818608E-02  0.1180000E+00
       11   -1    0    0    0    0  0.00000000000E+00  0.00000000000E+00  0.11999999989E+02  0.12000000000E+02  0.51109989000E-03 0.  1.
     -623   -1    0    0    0    0  0.00000000000E+00  0.00000000000E+00  0.42561509872E-11  0.25126700000E+02  0.25126700000E+02 0.  1.
      622    2    1    2    0    0 -0.41638307747E-02  0.13303289871E-01  0.11713020197E+02  0.11713629164E+02  0.11862441757E+00 0.  0.
       11    1    1    2    0    0  0.96954184602E-02 -0.10886983951E-01  0.28599832267E+00  0.28637009158E+00  0.51109989000E-03 0.  1.
     -623    1    1    2    0    0 -0.55315876856E-02 -0.24163059199E-02  0.98146973693E-03  0.25126700744E+02  0.25126700000E+02 0.  1.
     -611    1    3    3    0    0 -0.11886354768E-01  0.56452403353E-01  0.35307362444E+01  0.35312216847E+01  0.10000000000E-01 0. -1.
      611    1    3    3    0    0  0.77225239930E-02 -0.43149113482E-01  0.81822839523E+01  0.81824074795E+01  0.10000000000E-01 0.  1.
</event>
<event>
 7   0  0.6206631E-02  0.9118800E+02  0.7818608E-02  0.1180000E+00
       11   -1    0    0    0    0  0.00000000000E+00  0.00000000000E+00  0.11999999989E+02  0.12000000000E+02  0.51109989000E-03 0.  1.
     -623   -1    0    0    0    0  0.00000000000E+00  0.00000000000E+00  0.42561509872E-11  0.25126700000E+02  0.25126700000E+02 0.  1.
      622    2    1    2    0    0  0.17062188172E-02 -0.99646079924E-02  0.11974035397E+02  0.11974549584E+02  0.11050715282E+00 0.  0.
       11    1    1    2    0    0 -0.94699895097E-02  0.46421146309E-02  0.23154584693E-01  0.25448495928E-01  0.51109989000E-03 0.  1.
     -623    1    1    2    0    0  0.77637706926E-02  0.53224933615E-02  0.28100069943E-02  0.25126701920E+02  0.25126700000E+02 0.  1.
     -611    1    3    3    0    0  0.18311323989E-01 -0.40548724953E-01  0.23299549438E+01  0.23304011551E+01  0.10000000000E-01 0. -1.
      611    1    3    3    0    0 -0.16605105172E-01  0.30584116960E-01  0.96440804536E+01  0.96441484287E+01  0.10000000000E-01 0.  1.
</event>
<event>
 7   0  0.6206631E-02  0.9118800E+02  0.7818608E-02  0.1180000E+00
       11   -1    0    0    0    0  0.00000000000E+00  0.00000000000E+00  0.11999999989E+02  0.12000000000E+02  0.51109989000E-03 0. -1.
     -623   -1    0    0    0    0  0.00000000000E+00  0.00000000000E+00  0.42561509872E-11  0.25126700000E+02  0.25126700000E+02 0.  1.
      622    2    1    2    0    0 -0.26754471031E-02 -0.67284812452E-02  0.11853948683E+02  0.11854294162E+02  0.90212301699E-01 0.  0.
       11    1    1    2    0    0  0.85491212269E-02  0.24761891371E-02  0.14543178444E+00  0.14570478419E+00  0.51109989000E-03 0. -1.
     -623    1    1    2    0    0 -0.58736741238E-02  0.42522921082E-02  0.61952141287E-03  0.25126701054E+02  0.25126700000E+02 0.  1.
     -611    1    3    3    0    0  0.74815786143E-03 -0.10180769848E-01  0.11670528602E+02  0.11670537350E+02  0.10000000000E-01 0. -1.
      611    1    3    3    0    0 -0.34236049645E-02  0.34522886024E-02  0.18342008174E+00  0.18375681145E+00  0.10000000000E-01 0. -1.
</event>
<event>
 7   0  0.6206631E-02  0.9118800E+02  0.7818608E-02  0.1180000E+00
       11   -1    0    0    0    0  0.00000000000E+00  0.00000000000E+00  0.11999999989E+02  0.12000000000E+02  0.51109989000E-03 0. -1.
     -623   -1    0    0    0    0  0.00000000000E+00  0.00000000000E+00  0.42561509872E-11  0.25126700000E+02  0.25126700000E+02 0. -1.
      622    2    1    2    0    0 -0.23443671651E-01 -0.36205964348E-01  0.11027349051E+02  0.11028162157E+02  0.12677935957E+00 0.  0.
       11    1    1    2    0    0  0.31164519713E-01  0.20482327577E-01  0.97111575992E+00  0.97183168986E+00  0.51109989000E-03 0. -1.
     -623    1    1    2    0    0 -0.77208480622E-02  0.15723636771E-01  0.15351785843E-02  0.25126706153E+02  0.25126700000E+02 0. -1.
     -611    1    3    3    0    0 -0.16514889778E-01 -0.21212085744E-01  0.10787196542E+02  0.10787234675E+02  0.10000000000E-01 0. -1.
      611    1    3    3    0    0 -0.69287818728E-02 -0.14993878604E-01  0.24015250834E+00  0.24092748219E+00  0.10000000000E-01 0. -1.
</event>
<event>
 7   0  0.6206631E-02  0.9118800E+02  0.7818608E-02  0.1180000E+00
       11   -1    0    0    0    0  0.00000000000E+00  0.00000000000E+00  0.11999999989E+02  0.12000000000E+02  0.51109989000E-03 0. -1.
     -623   -1    0    0    0    0  0.00000000000E+00  0.00000000000E+00  0.42561509872E-11  0.25126700000E+02  0.25126700000E+02 0. -1.
      622    2    1    2    0    0  0.14738112793E-01 -0.17501640448E-01  0.11642824038E+02  0.11643512938E+02  0.12457302663E+00 0.  0.
       11    1    1    2    0    0  0.85299693440E-02 -0.96494527538E-02  0.35622849401E+00  0.35646160169E+00  0.51109989000E-03 0. -1.
     -623    1    1    2    0    0 -0.23268082137E-01  0.27151093202E-01  0.94745745630E-03  0.25126725461E+02  0.25126700000E+02 0. -1.
     -611    1    3    3    0    0  0.38299377853E-01 -0.38446091121E-01  0.24177824155E+01  0.24184120313E+01  0.10000000000E-01 0.  1.
      611    1    3    3    0    0 -0.23561265060E-01  0.20944450673E-01  0.92250416222E+01  0.92251009064E+01  0.10000000000E-01 0. -1.
</event>
<event>
 7   0  0.6206631E-02  0.9118800E+02  0.7818608E-02  0.1180000E+00
       11   -1    0    0    0    0  0.00000000000E+00  0.00000000000E+00  0.11999999989E+02  0.12000000000E+02  0.51109989000E-03 0. -1.
     -623   -1    0    0    0    0  0.00000000000E+00  0.00000000000E+00  0.42561509872E-11  0.25126700000E+02  0.25126700000E+02 0.  1.
      622    2    1    2    0    0  0.10369390623E-01  0.38153840850E-02  0.11559076068E+02  0.11559627424E+02  0.11235902226E+00 0.  0.
       11    1    1    2    0    0 -0.83062437358E-02 -0.59133892120E-02  0.44025404419E+00  0.44037239525E+00  0.51109989000E-03 0. -1.
     -623    1    1    2    0    0 -0.20631468868E-02  0.20980051270E-02  0.66987721071E-03  0.25126700181E+02  0.25126700000E+02 0.  1.
     -611    1    3    3    0    0  0.49042649982E-01  0.31361974920E-01  0.80383468239E+01  0.80385638280E+01  0.10000000000E-01 0.  1.
      611    1    3    3    0    0 -0.38673259359E-01 -0.27546590835E-01  0.35207292438E+01  0.35210635955E+01  0.10000000000E-01 0. -1.
</event>
<event>
 7   0  0.6206631E-02  0.9118800E+02  0.7818608E-02  0.1180000E+00
       11   -1    0    0    0    0  0.00000000000E+00  0.00000000000E+00  0.11999999989E+02  0.12000000000E+02  0.51109989000E-03 0.  1.
     -623   -1    0    0    0    0  0.00000000000E+00  0.00000000000E+00  0.42561509872E-11  0.25126700000E+02  0.25126700000E+02 0.  1.
      622    2    1    2    0    0 -0.73424440577E-01 -0.63586803999E-02  0.10121689604E+02  0.10122688408E+02  0.12160830052E+00 0.  0.
       11    1    1    2    0    0  0.26954753636E-01 -0.12188171546E-01  0.18770285776E+01  0.18772617433E+01  0.51109989000E-03 0.  1.
     -623    1    1    2    0    0  0.46469686941E-01  0.18546851946E-01  0.12818070044E-02  0.25126749849E+02  0.25126700000E+02 0.  1.
     -611    1    3    3    0    0  0.43220607977E-02 -0.46691702197E-01  0.50975006514E+01  0.50977261290E+01  0.10000000000E-01 0. -1.
      611    1    3    3    0    0 -0.77746501375E-01  0.40333021797E-01  0.50241889531E+01  0.50249622793E+01  0.10000000000E-01 0.  1.
</event>
<event>
 7   0  0.6206631E-02  0.9118800E+02  0.7818608E-02  0.1180000E+00
       11   -1    0    0    0    0  0.00000000000E+00  0.00000000000E+00  0.11999999989E+02  0.12000000000E+02  0.51109989000E-03 0. -1.
     -623   -1    0    0    0    0  0.00000000000E+00  0.00000000000E+00  0.42561509872E-11  0.25126700000E+02  0.25126700000E+02 0. -1.
      622    2    1    2    0    0  0.11269894590E+00  0.26869902036E-01  0.95909239759E+01  0.95923407992E+01  0.11728705139E+00 0.  0.
       11    1    1    2    0    0 -0.11095168526E+00 -0.30794795908E-01  0.24049034353E+01  0.24076584871E+01  0.51109989000E-03 0. -1.
     -623    1    1    2    0    0 -0.17472606318E-02  0.39248938718E-02  0.41725779120E-02  0.25126700714E+02  0.25126700000E+02 0. -1.
     -611    1    3    3    0    0 -0.25771141758E-02  0.32405075466E-01  0.43676680891E+01  0.43678005068E+01  0.10000000000E-01 0.  1.
      611    1    3    3    0    0  0.11527606007E+00 -0.55351734301E-02  0.52232558868E+01  0.52245402924E+01  0.10000000000E-01 0. -1.
</event>
<event>
 7   0  0.6206631E-02  0.9118800E+02  0.7818608E-02  0.1180000E+00
       11   -1    0    0    0    0  0.00000000000E+00  0.00000000000E+00  0.11999999989E+02  0.12000000000E+02  0.51109989000E-03 0.  1.
     -623   -1    0    0    0    0  0.00000000000E+00  0.00000000000E+00  0.42561509872E-11  0.25126700000E+02  0.25126700000E+02 0. -1.
      622    2    1    2    0    0 -0.17218495129E-01  0.13865343208E-01  0.10545660424E+02  0.10546031343E+02  0.85642077054E-01 0.  0.
       11    1    1    2    0    0  0.45143327610E-01 -0.25566939575E-01  0.14530243841E+01  0.14539503810E+01  0.51109989000E-03 0.  1.
     -623    1    1    2    0    0 -0.27924832481E-01  0.11701596367E-01  0.13151805384E-02  0.25126718276E+02  0.25126700000E+02 0. -1.
     -611    1    3    3    0    0  0.19855249685E-01  0.36723272413E-01  0.58912021673E+01  0.58913585704E+01  0.10000000000E-01 0.  1.
      611    1    3    3    0    0 -0.37073744814E-01 -0.22857929206E-01  0.46544582572E+01  0.46546727721E+01  0.10000000000E-01 0. -1.
</event>
<event>
 7   0  0.6206631E-02  0.9118800E+02  0.7818608E-02  0.1180000E+00
       11   -1    0    0    0    0  0.00000000000E+00  0.00000000000E+00  0.11999999989E+02  0.12000000000E+02  0.51109989000E-03 0. -1.
     -623   -1    0    0    0    0  0.00000000000E+00  0.00000000000E+00  0.42561509872E-11  0.25126700000E+02  0.25126700000E+02 0. -1.
      622    2    1    2    0    0  0.14152881908E-01 -0.64350953942E-01  0.46575280678E+01  0.46590859124E+01  0.10085875300E+00 0.  0.
       11    1    1    2    0    0 -0.21174798785E-01  0.49507301311E-01  0.73407111612E+01  0.73409086602E+01  0.51109989000E-03 0. -1.
     -623    1    1    2    0    0  0.70219168772E-02  0.14843652631E-01  0.17607601788E-02  0.25126705427E+02  0.25126700000E+02 0. -1.
     -611    1    3    3    0    0 -0.26819164674E-01 -0.38109334443E-01  0.36699320867E+01  0.36702415602E+01  0.10000000000E-01 0.  1.
      611    1    3    3    0    0  0.40972046582E-01 -0.26241619499E-01  0.98759598107E+00  0.98884435228E+00  0.10000000000E-01 0. -1.
</event>
<event>
 7   0  0.6206631E-02  0.9118800E+02  0.7818608E-02  0.1180000E+00
       11   -1    0    0    0    0  0.00000000000E+00  0.00000000000E+00  0.11999999989E+02  0.12000000000E+02  0.51109989000E-03 0.  1.
     -623   -1    0    0    0    0  0.00000000000E+00  0.00000000000E+00  0.42561509872E-11  0.25126700000E+02  0.25126700000E+02 0. -1.
      622    2    1    2    0    0 -0.20250817509E-01  0.14088442168E-01  0.10940266121E+02  0.10940466166E+02  0.61388472890E-01 0.  0.
       11    1    1    2    0    0  0.20505528057E-01 -0.96822895515E-02  0.10592906264E+01  0.10595334425E+01  0.51109989000E-03 0.  1.
     -623    1    1    2    0    0 -0.25471054873E-03 -0.44061526161E-02  0.44324145902E-03  0.25126700392E+02  0.25126700000E+02 0. -1.
     -611    1    3    3    0    0  0.78568523707E-02  0.22193005853E-01  0.22556732137E+01  0.22558182344E+01  0.10000000000E-01 0.  1.
      611    1    3    3    0    0 -0.28107669879E-01 -0.81045636858E-02  0.86845929076E+01  0.86846479316E+01  0.10000000000E-01 0.  1.
</event>
<event>
 7   0  0.6206631E-02  0.9118800E+02  0.7818608E-02  0.1180000E+00
       11   -1    0    0    0    0  0.00000000000E+00  0.00000000000E+00  0.11999999989E+02  0.12000000000E+02  0.51109989000E-03 0.  1.
     -623   -1    0    0    0    0  0.00000000000E+00  0.00000000000E+00  0.42561509872E-11  0.25126700000E+02  0.25126700000E+02 0.  1.
      622    2    1    2    0    0  0.71960110681E-02  0.18972158673E-01  0.11848250286E+02  0.11848701259E+02  0.10136546718E+00 0.  0.
       11    1    1    2    0    0 -0.20441429054E-01  0.27521682520E-02  0.14987228577E+00  0.15128578822E+00  0.51109989000E-03 0.  1.
     -623    1    1    2    0    0  0.13245417986E-01 -0.21724326925E-01  0.18774170800E-02  0.25126712953E+02  0.25126700000E+02 0.  1.
     -611    1    3    3    0    0  0.35885467476E-02  0.48321377787E-01  0.10385938900E+02  0.10386056743E+02  0.10000000000E-01 0.  1.
      611    1    3    3    0    0  0.36074643205E-02 -0.29349219114E-01  0.14623113867E+01  0.14626445166E+01  0.10000000000E-01 0. -1.
</event>
<event>
 7   0  0.6206631E-02  0.9118800E+02  0.7818608E-02  0.1180000E+00
       11   -1    0    0    0    0  0.00000000000E+00  0.00000000000E+00  0.11999999989E+02  0.12000000000E+02  0.51109989000E-03 0. -1.
     -623   -1    0    0    0    0  0.00000000000E+00  0.00000000000E+00  0.42561509872E-11  0.25126700000E+02  0.25126700000E+02 0.  1.
      622    2    1    2    0    0  0.41789324956E-01 -0.26812776896E-01  0.84547723265E+01  0.84557462395E+01  0.11833891857E+00 0.  0.
       11    1    1    2    0    0 -0.48986918286E-01 -0.23568590106E-01  0.35437852115E+01  0.35442021786E+01  0.51109989000E-03 0. -1.
     -623    1    1    2    0    0  0.71975933302E-02  0.50381367001E-01  0.14424510614E-02  0.25126751582E+02  0.25126700000E+02 0.  1.
     -611    1    3    3    0    0  0.16395474892E-01  0.17553862260E-01  0.42002648072E+00  0.42083155084E+00  0.10000000000E-01 0.  1.
      611    1    3    3    0    0  0.25393850063E-01 -0.44366639156E-01  0.80347458458E+01  0.80349146886E+01  0.10000000000E-01 0. -1.
</event>
<event>
 7   0  0.6206631E-02  0.9118800E+02  0.7818608E-02  0.1180000E+00
       11   -1    0    0    0    0  0.00000000000E+00  0.00000000000E+00  0.11999999989E+02  0.12000000000E+02  0.51109989000E-03 0. -1.
     -623   -1    0    0    0    0  0.00000000000E+00  0.00000000000E+00  0.42561509872E-11  0.25126700000E+02  0.25126700000E+02 0. -1.
      622    2    1    2    0    0 -0.29797400398E-01  0.37329768155E-02  0.11499210751E+02  0.11499406704E+02  0.60040264549E-01 0.  0.
       11    1    1    2    0    0  0.13655390177E-01 -0.18320261572E-01  0.50006184026E+00  0.50058386608E+00  0.51109989000E-03 0. -1.
     -623    1    1    2    0    0  0.16142010221E-01  0.14587284756E-01  0.72739802766E-03  0.25126709430E+02  0.25126700000E+02 0. -1.
     -611    1    3    3    0    0 -0.63566129327E-03  0.23042769363E-01  0.71387066024E+01  0.71387508241E+01  0.10000000000E-01 0. -1.
      611    1    3    3    0    0 -0.29161739104E-01 -0.19309792548E-01  0.43605041484E+01  0.43606558799E+01  0.10000000000E-01 0.  1.
</event>
<event>
 7   0  0.6206631E-02  0.9118800E+02  0.7818608E-02  0.1180000E+00
       11   -1    0    0    0    0  0.00000000000E+00  0.00000000000E+00  0.11999999989E+02  0.12000000000E+02  0.51109989000E-03 0. -1.
     -623   -1    0    0    0    0  0.00000000000E+00  0.00000000000E+00  0.42561509872E-11  0.25126700000E+02  0.25126700000E+02 0. -1.
      622    2    1    2    0    0  0.65139448846E-02 -0.59964038173E-01  0.43880441679E+01  0.43896733475E+01  0.10325870653E+00 0.  0.
       11    1    1    2    0    0 -0.11663921115E-01  0.61125361743E-01  0.76100715912E+01  0.76103260272E+01  0.51109989000E-03 0. -1.
     -623    1    1    2    0    0  0.51499762304E-02 -0.11613235697E-02  0.18842299892E-02  0.25126700625E+02  0.25126700000E+02 0. -1.
     -611    1    3    3    0    0  0.72637021761E-02 -0.19265579043E-01  0.18373882617E+00  0.18515906715E+00  0.10000000000E-01 0.  1.
      611    1    3    3    0    0 -0.74975729147E-03 -0.40698459129E-01  0.42043053418E+01  0.42045142803E+01  0.10000000000E-01 0. -1.
</event>
<event>
 7   0  0.6206631E-02  0.9118800E+02  0.7818608E-02  0.1180000E+00
       11   -1    0    0    0    0  0.00000000000E+00  0.00000000000E+00  0.11999999989E+02  0.12000000000E+02  0.51109989000E-03 0. -1.
     -623   -1    0    0    0    0  0.00000000000E+00  0.00000000000E+00  0.42561509872E-11  0.25126700000E+02  0.25126700000E+02 0. -1.
      622    2    1    2    0    0 -0.81623216110E-02 -0.15569370410E-01  0.10862796632E+02  0.10863372255E+02  0.11044023783E+00 0.  0.
       11    1    1    2    0    0  0.75405440260E-02  0.19040264534E-01  0.11364428670E+01  0.11366274863E+01  0.51109989000E-03 0. -1.
     -623    1    1    2    0    0  0.62177758492E-03 -0.34708941243E-02  0.76049001849E-03  0.25126700259E+02  0.25126700000E+02 0. -1.
     -611    1    3    3    0    0 -0.25257267265E-01 -0.45899240308E-01  0.93115569654E+01  0.93117097136E+01  0.10000000000E-01 0. -1.
      611    1    3    3    0    0  0.17094945654E-01  0.30329869898E-01  0.15512396667E+01  0.15516625412E+01  0.10000000000E-01 0.  1.
</event>
<event>
 7   0  0.6206631E-02  0.9118800E+02  0.7818608E-02  0.1180000E+00
       11   -1    0    0    0    0  0.00000000000E+00  0.00000000000E+00  0.11999999989E+02  0.12000000000E+02  0.51109989000E-03 0. -1.
     -623   -1    0    0    0    0  0.00000000000E+00  0.00000000000E+00  0.42561509872E-11  0.25126700000E+02  0.25126700000E+02 0. -1.
      622    2    1    2    0    0 -0.26996057856E-01 -0.21644307469E-01  0.11811818410E+02  0.11812455834E+02  0.11773449720E+00 0.  0.
       11    1    1    2    0    0  0.32485014216E-02  0.10525991794E-01  0.18720594219E+00  0.18753046494E+00  0.51109989000E-03 0. -1.
     -623    1    1    2    0    0  0.23747556435E-01  0.11118315675E-01  0.97563654630E-03  0.25126713701E+02  0.25126700000E+02 0. -1.
     -611    1    3    3    0    0 -0.10406332237E-01 -0.62101632979E-01  0.94271721079E+01  0.94273877006E+01  0.10000000000E-01 0.  1.
      611    1    3    3    0    0 -0.16589725619E-01  0.40457325510E-01  0.23846463025E+01  0.23850681336E+01  0.10000000000E-01 0. -1.
</event>
<event>
 7   0  0.6206631E-02  0.9118800E+02  0.7818608E-02  0.1180000E+00
       11   -1    0    0    0    0  0.00000000000E+00  0.00000000000E+00  0.11999999989E+02  0.12000000000E+02  0.51109989000E-03 0. -1.
     -623   -1    0    0    0    0  0.00000000000E+00  0.00000000000E+00  0.42561509872E-11  0.25126700000E+02  0.25126700000E+02 0.  1.
      622    2    1    2    0    0  0.27537683643E-02 -0.42446755176E-01  0.99141672768E+01  0.99150890527E+01  0.12833090176E+00 0.  0.
       11    1    1    2    0    0  0.38748763542E-01 -0.42030848416E-01  0.20839505753E+01  0.20847345923E+01  0.51109989000E-03 0. -1.
     -623    1    1    2    0    0 -0.41502531906E-01  0.84477603592E-01  0.18821370125E-02  0.25126876355E+02  0.25126700000E+02 0.  1.
     -611    1    3    3    0    0 -0.44388667892E-01  0.22137210597E-01  0.50596044953E+01  0.50598575137E+01  0.10000000000E-01 0.  1.
      611    1    3    3    0    0  0.47142436256E-01 -0.64583965773E-01  0.48545627815E+01  0.48552315390E+01  0.10000000000E-01 0. -1.
</event>
<event>
 7   0  0.6206631E-02  0.9118800E+02  0.7818608E-02  0.1180000E+00
       11   -1    0    0    0    0  0.00000000000E+00  0.00000000000E+00  0.11999999989E+02  0.12000000000E+02  0.51109989000E-03 0. -1.
     -623   -1    0    0    0    0  0.00000000000E+00  0.00000000000E+00  0.42561509872E-11  0.25126700000E+02  0.25126700000E+02 0. -1.
      622    2    1    2    0    0 -0.22532772162E-01  0.19184794516E-02  0.99091330062E+01  0.99104178764E+01  0.15796880684E+00 0.  0.
       11    1    1    2    0    0  0.47302847961E-01 -0.77948507402E-01  0.20874642437E+01  0.20894546559E+01  0.51109989000E-03 0. -1.
     -623    1    1    2    0    0 -0.24770075799E-01  0.76030027950E-01  0.34027392266E-02  0.25126827468E+02  0.25126700000E+02 0. -1.
     -611    1    3    3    0    0  0.26504742729E-01  0.67452526649E-01  0.35776887366E+01  0.35784366756E+01  0.10000000000E-01 0.  1.
      611    1    3    3    0    0 -0.49037514891E-01 -0.65534047198E-01  0.63314442695E+01  0.63319812008E+01  0.10000000000E-01 0. -1.
</event>
<event>
 7   0  0.6206631E-02  0.9118800E+02  0.7818608E-02  0.1180000E+00
       11   -1    0    0    0    0  0.00000000000E+00  0.00000000000E+00  0.11999999989E+02  0.12000000000E+02  0.51109989000E-03 0. -1.
     -623   -1    0    0    0    0  0.00000000000E+00  0.00000000000E+00  0.42561509872E-11  0.25126700000E+02  0.25126700000E+02 0.  1.
      622    2    1    2    0    0 -0.65450266228E-03  0.12558024130E-02  0.11996716051E+02  0.11997187773E+02  0.10637879351E+00 0.  0.
       11    1    1    2    0    0  0.38589896165E-04 -0.42640168990E-03  0.27320208973E-02  0.28122000091E-02  0.51109989000E-03 0. -1.
     -623    1    1    2    0    0  0.61591276611E-03 -0.82940072305E-03  0.55191756503E-03  0.25126700027E+02  0.25126700000E+02 0.  1.
     -611    1    3    3    0    0 -0.96185143058E-02 -0.11248308737E-01  0.34862557869E+00  0.34908284745E+00  0.10000000000E-01 0.  1.
      611    1    3    3    0    0  0.89640116435E-02  0.12504111150E-01  0.11648090472E+02  0.11648104925E+02  0.10000000000E-01 0. -1.
</event>
<event>
 7   0  0.6206631E-02  0.9118800E+02  0.7818608E-02  0.1180000E+00
       11   -1    0    0    0    0  0.00000000000E+00  0.00000000000E+00  0.11999999989E+02  0.12000000000E+02  0.51109989000E-03 0. -1.
     -623   -1    0    0    0    0  0.00000000000E+00  0.00000000000E+00  0.42561509872E-11  0.25126700000E+02  0.25126700000E+02 0.  1.
      622    2    1    2    0    0 -0.34662039080E-03 -0.21740253086E-02  0.11953952909E+02  0.11954215697E+02  0.79233397849E-01 0.  0.
       11    1    1    2    0    0  0.64187346282E-03  0.18403071940E-02  0.45739937913E-01  0.45784297259E-01  0.51109989000E-03 0. -1.
     -623    1    1    2    0    0 -0.29525307201E-03  0.33371811454E-03  0.30714221282E-03  0.25126700006E+02  0.25126700000E+02 0.  1.
     -611    1    3    3    0    0 -0.14207055697E-01  0.17397457638E-01  0.13079057313E+01  0.13081368101E+01  0.10000000000E-01 0.  1.
      611    1    3    3    0    0  0.13860435306E-01 -0.19571482947E-01  0.10646047178E+02  0.10646078887E+02  0.10000000000E-01 0. -1.
</event>
<event>
 7   0  0.6206631E-02  0.9118800E+02  0.7818608E-02  0.1180000E+00
       11   -1    0    0    0    0  0.00000000000E+00  0.00000000000E+00  0.11999999989E+02  0.12000000000E+02  0.51109989000E-03 0.  1.
     -623   -1    0    0    0    0  0.00000000000E+00  0.00000000000E+00  0.42561509872E-11  0.25126700000E+02  0.25126700000E+02 0.  1.
      622    2    1    2    0    0  0.98770741661E-02  0.81442196824E-02  0.11973876322E+02  0.11974243080E+02  0.92840070768E-01 0.  0.
       11    1    1    2    0    0  0.37869416883E-02 -0.90022520762E-02  0.23823909704E-01  0.25753084602E-01  0.51109989000E-03 0.  1.
     -623    1    1    2    0    0 -0.13664015854E-01  0.85803239378E-03  0.22997571593E-02  0.25126703835E+02  0.25126700000E+02 0.  1.
     -611    1    3    3    0    0  0.29532949783E-01  0.33017342897E-01  0.34117383894E+01  0.34120406178E+01  0.10000000000E-01 0. -1.
      611    1    3    3    0    0 -0.19655875617E-01 -0.24873123215E-01  0.85621379329E+01  0.85622024624E+01  0.10000000000E-01 0.  1.
</event>
<event>
 7   0  0.6206631E-02  0.9118800E+02  0.7818608E-02  0.1180000E+00
       11   -1    0    0    0    0  0.00000000000E+00  0.00000000000E+00  0.11999999989E+02  0.12000000000E+02  0.51109989000E-03 0.  1.
     -623   -1    0    0    0    0  0.00000000000E+00  0.00000000000E+00  0.42561509872E-11  0.25126700000E+02  0.25126700000E+02 0. -1.
      622    2    1    2    0    0 -0.50849415124E-01  0.57266452942E-01  0.80844084394E+01  0.80855872186E+01  0.11487273575E+00 0.  0.
       11    1    1    2    0    0  0.51234074590E-01 -0.56359117648E-01  0.39136715697E+01  0.39144126887E+01  0.51109989000E-03 0.  1.
     -623    1    1    2    0    0 -0.38465946622E-03 -0.90733529374E-03  0.19199800063E-02  0.25126700093E+02  0.25126700000E+02 0. -1.
     -611    1    3    3    0    0 -0.61238505848E-01  0.82103337297E-01  0.71415780120E+01  0.71423194842E+01  0.10000000000E-01 0.  1.
      611    1    3    3    0    0  0.10389090724E-01 -0.24836884355E-01  0.94283042732E+00  0.94326773438E+00  0.10000000000E-01 0. -1.
</event>
<event>
 7   0  0.6206631E-02  0.9118800E+02  0.7818608E-02  0.1180000E+00
       11   -1    0    0    0    0  0.00000000000E+00  0.00000000000E+00  0.11999999989E+02  0.12000000000E+02  0.51109989000E-03 0. -1.
     -623   -1    0    0    0    0  0.00000000000E+00  0.00000000000E+00  0.42561509872E-11  0.25126700000E+02  0.25126700000E+02 0.  1.
      622    2    1    2    0    0  0.10864281685E-02  0.89918643670E-02  0.11959188391E+02  0.11959584271E+02  0.96886193177E-01 0.  0.
       11    1    1    2    0    0  0.24359593505E-02 -0.79988375151E-02  0.39537709767E-01  0.40415430423E-01  0.51109989000E-03 0. -1.
     -623    1    1    2    0    0 -0.35223875190E-02 -0.99302685197E-03  0.12738887789E-02  0.25126700299E+02  0.25126700000E+02 0.  1.
     -611    1    3    3    0    0  0.80254159972E-02  0.18680010883E-01  0.11635677866E+02  0.11635699925E+02  0.10000000000E-01 0. -1.
      611    1    3    3    0    0 -0.69389878287E-02 -0.96881465164E-02  0.32351052456E+00  0.32388434546E+00  0.10000000000E-01 0.  1.
</event>
<event>
 7   0  0.6206631E-02  0.9118800E+02  0.7818608E-02  0.1180000E+00
       11   -1    0    0    0    0  0.00000000000E+00  0.00000000000E+00  0.11999999989E+02  0.12000000000E+02  0.51109989000E-03 0. -1.
     -623   -1    0    0    0    0  0.00000000000E+00  0.00000000000E+00  0.42561509872E-11  0.25126700000E+02  0.25126700000E+02 0. -1.
      622    2    1    2    0    0  0.14273130696E-02 -0.73031758577E-03  0.11958484247E+02  0.11958888320E+02  0.98294374059E-01 0.  0.
       11    1    1    2    0    0 -0.13377339029E-02  0.45887330972E-04  0.41086692403E-01  0.41111666877E-01  0.51109989000E-03 0. -1.
     -623    1    1    2    0    0 -0.89579166777E-04  0.68443025480E-03  0.42904932315E-03  0.25126700013E+02  0.25126700000E+02 0. -1.
     -611    1    3    3    0    0  0.33629740502E-01 -0.29742914790E-01  0.84019991179E+01  0.84021250156E+01  0.10000000000E-01 0.  1.
      611    1    3    3    0    0 -0.32202427433E-01  0.29012597205E-01  0.35564851294E+01  0.35567633043E+01  0.10000000000E-01 0. -1.
</event>
<event>
 7   0  0.6206631E-02  0.9118800E+02  0.7818608E-02  0.1180000E+00
       11   -1    0    0    0    0  0.00000000000E+00  0.00000000000E+00  0.11999999989E+02  0.12000000000E+02  0.51109989000E-03 0.  1.
     -623   -1    0    0    0    0  0.00000000000E+00  0.00000000000E+00  0.42561509872E-11  0.25126700000E+02  0.25126700000E+02 0. -1.
      622    2    1    2    0    0  0.36384925150E-03 -0.13137780943E-02  0.11779588570E+02  0.11779675070E+02  0.45122178925E-01 0.  0.
       11    1    1    2    0    0 -0.54536504017E-03  0.20334492762E-02  0.22031426710E+00  0.22032491881E+00  0.51109989000E-03 0.  1.
     -623    1    1    2    0    0  0.18151578867E-03 -0.71967118185E-03  0.97151690857E-04  0.25126700011E+02  0.25126700000E+02 0. -1.
     -611    1    3    3    0    0  0.34364661858E-02 -0.13132976611E-01  0.19244470492E+01  0.19245209091E+01  0.10000000000E-01 0.  1.
      611    1    3    3    0    0 -0.30726169343E-02  0.11819198517E-01  0.98551415210E+01  0.98551541608E+01  0.10000000000E-01 0.  1.
</event>
<event>
 7   0  0.6206631E-02  0.9118800E+02  0.7818608E-02  0.1180000E+00
       11   -1    0    0    0    0  0.00000000000E+00  0.00000000000E+00  0.11999999989E+02  0.12000000000E+02  0.51109989000E-03 0. -1.
     -623   -1    0    0    0    0  0.00000000000E+00  0.00000000000E+00  0.42561509872E-11  0.25126700000E+02  0.25126700000E+02 0.  1.
      622    2    1    2    0    0  0.60075602848E-01  0.12849210124E+00  0.10702612990E+02  0.10704092627E+02  0.10749347577E+00 0.  0.
       11    1    1    2    0    0  0.74986288245E-02 -0.11043912665E+00  0.12910725261E+01  0.12958092294E+01  0.51109989000E-03 0. -1.
     -623    1    1    2    0    0 -0.67574231673E-01 -0.18052974586E-01  0.63144726388E-02  0.25126798144E+02  0.25126700000E+02 0.  1.
     -611    1    3    3    0    0  0.58045335789E-01  0.13408609989E+00  0.10556872853E+02  0.10557888652E+02  0.10000000000E-01 0. -1.
      611    1    3    3    0    0  0.20302670594E-02 -0.55939986561E-02  0.14574013693E+00  0.14620397504E+00  0.10000000000E-01 0. -1.
</event>
<event>
 7   0  0.6206631E-02  0.9118800E+02  0.7818608E-02  0.1180000E+00
       11   -1    0    0    0    0  0.00000000000E+00  0.00000000000E+00  0.11999999989E+02  0.12000000000E+02  0.51109989000E-03 0.  1.
     -623   -1    0    0    0    0  0.00000000000E+00  0.00000000000E+00  0.42561509872E-11  0.25126700000E+02  0.25126700000E+02 0. -1.
      622    2    1    2    0    0  0.32209867239E-02  0.50222771513E-02  0.11955898327E+02  0.11956323740E+02  0.10068257009E+00 0.  0.
       11    1    1    2    0    0  0.22304939731E-02 -0.27279511738E-02  0.43530176471E-01  0.43675557325E-01  0.51109989000E-03 0.  1.
     -623    1    1    2    0    0 -0.54514806970E-02 -0.22943259775E-02  0.57148592370E-03  0.25126700703E+02  0.25126700000E+02 0. -1.
     -611    1    3    3    0    0 -0.46005371173E-01  0.12279309512E-01  0.48450963282E+01  0.48453406180E+01  0.10000000000E-01 0.  1.
      611    1    3    3    0    0  0.49226357897E-01 -0.72570323608E-02  0.71108019985E+01  0.71109831220E+01  0.10000000000E-01 0. -1.
</event>
<event>
 7   0  0.6206631E-02  0.9118800E+02  0.7818608E-02  0.1180000E+00
       11   -1    0    0    0    0  0.00000000000E+00  0.00000000000E+00  0.11999999989E+02  0.12000000000E+02  0.51109989000E-03 0. -1.
     -623   -1    0    0    0    0  0.00000000000E+00  0.00000000000E+00  0.42561509872E-11  0.25126700000E+02  0.25126700000E+02 0.  1.
      622    2    1    2    0    0 -0.30006942093E-02 -0.63864232672E-02  0.11745400837E+02  0.11745824490E+02  0.99510550733E-01 0.  0.
       11    1    1    2    0    0 -0.14298894592E-02  0.23318300221E-02  0.25415955576E+00  0.25417478833E+00  0.51109989000E-03 0. -1.
     -623    1    1    2    0    0  0.44305836685E-02  0.40545932451E-02  0.43959681231E-03  0.25126700722E+02  0.25126700000E+02 0.  1.
     -611    1    3    3    0    0 -0.38766038538E-01 -0.24717682947E-01  0.88769736002E+01  0.88770982910E+01  0.10000000000E-01 0. -1.
      611    1    3    3    0    0  0.35765344329E-01  0.18331259680E-01  0.28684272364E+01  0.28687261991E+01  0.10000000000E-01 0.  1.
</event>
<event>
 7   0  0.6206631E-02  0.9118800E+02  0.7818608E-02  0.1180000E+00
       11   -1    0    0    0    0  0.00000000000E+00  0.00000000000E+00  0.11999999989E+02  0.12000000000E+02  0.51109989000E-03 0.  1.
     -623   -1    0    0    0    0  0.00000000000E+00  0.00000000000E+00  0.42561509872E-11  0.25126700000E+02  0.25126700000E+02 0.  1.
      622    2    1    2    0    0  0.33598515158E-02 -0.27414743017E-02  0.11531681694E+02  0.11531721769E+02  0.30090840745E-01 0.  0.
       11    1    1    2    0    0 -0.12618673815E-02 -0.58597717314E-03  0.46827557741E+00  0.46827792314E+00  0.51109989000E-03 0.  1.
     -623    1    1    2    0    0 -0.20979841344E-02  0.33274514749E-02  0.42717668919E-04  0.25126700308E+02  0.25126700000E+02 0.  1.
     -611    1    3    3    0    0 -0.11644451283E-02 -0.12171331575E-01  0.54720865959E+01  0.54721093932E+01  0.10000000000E-01 0.  1.
      611    1    3    3    0    0  0.45242966441E-02  0.94298572734E-02  0.60595950979E+01  0.60596123756E+01  0.10000000000E-01 0.  1.
</event>
<event>
 7   0  0.6206631E-02  0.9118800E+02  0.7818608E-02  0.1180000E+00
       11   -1    0    0    0    0  0.00000000000E+00  0.00000000000E+00  0.11999999989E+02  0.12000000000E+02  0.51109989000E-03 0. -1.
     -623   -1    0    0    0    0  0.00000000000E+00  0.00000000000E+00  0.42561509872E-11  0.25126700000E+02  0.25126700000E+02 0. -1.
      622    2    1    2    0    0  0.10521718824E-01 -0.60301309977E-02  0.11815443154E+02  0.11816289611E+02  0.14091193052E+00 0.  0.
       11    1    1    2    0    0  0.12036578345E-01  0.17285019026E-01  0.18248538772E+00  0.18369765664E+00  0.51109989000E-03 0. -1.
     -623    1    1    2    0    0 -0.22558297169E-01 -0.11254888029E-01  0.20714471274E-02  0.25126712732E+02  0.25126700000E+02 0. -1.
     -611    1    3    3    0    0 -0.15706657579E-02  0.49899388564E-01  0.94364758731E+01  0.94366132336E+01  0.10000000000E-01 0.  1.
      611    1    3    3    0    0  0.12092384582E-01 -0.55929519562E-01  0.23789672811E+01  0.23796763775E+01  0.10000000000E-01 0. -1.
</event>
<event>
 7   0  0.6206631E-02  0.9118800E+02  0.7818608E-02  0.1180000E+00
       11   -1    0    0    0    0  0.00000000000E+00  0.00000000000E+00  0.11999999989E+02  0.12000000000E+02  0.51109989000E-03 0.  1.
     -623   -1    0    0    0    0  0.00000000000E+00  0.00000000000E+00  0.42561509872E-11  0.25126700000E+02  0.25126700000E+02 0. -1.
      622    2    1    2    0    0 -0.13623484948E-02  0.10498747719E-01  0.11331894452E+02  0.11332462575E+02  0.11297816735E+00 0.  0.
       11    1    1    2    0    0  0.48195133456E-02 -0.83616515382E-02  0.66746712156E+00  0.66753708850E+00  0.51109989000E-03 0.  1.
     -623    1    1    2    0    0 -0.34571648508E-02 -0.21370961808E-02  0.63841603344E-03  0.25126700337E+02  0.25126700000E+02 0. -1.
     -611    1    3    3    0    0 -0.14227202091E-02 -0.12635131797E-01  0.10760931204E+02  0.10760943362E+02  0.10000000000E-01 0.  1.
      611    1    3    3    0    0  0.60371714288E-04  0.23133879516E-01  0.57096324786E+00  0.57151921265E+00  0.10000000000E-01 0.  1.
</event>
<event>
 7   0  0.6206631E-02  0.9118800E+02  0.7818608E-02  0.1180000E+00
       11   -1    0    0    0    0  0.00000000000E+00  0.00000000000E+00  0.11999999989E+02  0.12000000000E+02  0.51109989000E-03 0.  1.
     -623   -1    0    0    0    0  0.00000000000E+00  0.00000000000E+00  0.42561509872E-11  0.25126700000E+02  0.25126700000E+02 0.  1.
      622    2    1    2    0    0 -0.62914662606E-03 -0.44362875445E-03  0.10478604015E+02  0.10478702394E+02  0.45400200228E-01 0.  0.
       11    1    1    2    0    0  0.12674544368E-02  0.82705335023E-03  0.15212967560E+01  0.15212975947E+01  0.51109989000E-03 0.  1.
     -623    1    1    2    0    0 -0.63830781072E-03 -0.38342459578E-03  0.99218572993E-04  0.25126700011E+02  0.25126700000E+02 0.  1.
     -611    1    3    3    0    0 -0.22319758764E-02 -0.18334849904E-01  0.73960265184E+01  0.73960563417E+01  0.10000000000E-01 0.  1.
      611    1    3    3    0    0  0.16028292504E-02  0.17891221150E-01  0.30825774962E+01  0.30826460525E+01  0.10000000000E-01 0. -1.
</event>
<event>
 7   0  0.6206631E-02  0.9118800E+02  0.7818608E-02  0.1180000E+00
       11   -1    0    0    0    0  0.00000000000E+00  0.00000000000E+00  0.11999999989E+02  0.12000000000E+02  0.51109989000E-03 0.  1.
     -623   -1    0    0    0    0  0.00000000000E+00  0.00000000000E+00  0.42561509872E-11  0.25126700000E+02  0.25126700000E+02 0. -1.
      622    2    1    2    0    0 -0.40508390739E-03  0.79263559711E-03  0.11996677956E+02  0.11997291594E+02  0.12133757714E+00 0.  0.
       11    1    1    2    0    0 -0.14941261023E-02  0.16977287811E-02  0.13993180081E-02  0.27081377071E-02  0.51109989000E-03 0.  1.
     -623    1    1    2    0    0  0.18992100096E-02 -0.24903643782E-02  0.19227150928E-02  0.25126700269E+02  0.25126700000E+02 0. -1.
     -611    1    3    3    0    0  0.50120028127E-01 -0.29039239249E-01  0.46287857320E+01  0.46291589568E+01  0.10000000000E-01 0.  1.
      611    1    3    3    0    0 -0.50525112034E-01  0.29831874846E-01  0.73678922240E+01  0.73681326367E+01  0.10000000000E-01 0. -1.
</event>
<event>
 7   0  0.6206631E-02  0.9118800E+02  0.7818608E-02  0.1180000E+00
       11   -1    0    0    0    0  0.00000000000E+00  0.00000000000E+00  0.11999999989E+02  0.12000000000E+02  0.51109989000E-03 0. -1.
     -623   -1    0    0    0    0  0.00000000000E+00  0.00000000000E+00  0.42561509872E-11  0.25126700000E+02  0.25126700000E+02 0. -1.
      622    2    1    2    0    0  0.25350027900E-01  0.83504491324E-01  0.81149626972E+01  0.81159948984E+01  0.95592828098E-01 0.  0.
       11    1    1    2    0    0 -0.26224158591E-01 -0.85809830712E-01  0.38829682890E+01  0.38840048955E+01  0.51109989000E-03 0. -1.
     -623    1    1    2    0    0  0.87413069114E-03  0.23053393881E-02  0.20690028784E-02  0.25126700206E+02  0.25126700000E+02 0. -1.
     -611    1    3    3    0    0  0.31333329058E-01 -0.92473334851E-02  0.28214126557E+01  0.28216195109E+01  0.10000000000E-01 0. -1.
      611    1    3    3    0    0 -0.59833011583E-02  0.92751824810E-01  0.52935500416E+01  0.52943753875E+01  0.10000000000E-01 0.  1.
</event>
<event>
 7   0  0.6206631E-02  0.9118800E+02  0.7818608E-02  0.1180000E+00
       11   -1    0    0    0    0  0.00000000000E+00  0.00000000000E+00  0.11999999989E+02  0.12000000000E+02  0.51109989000E-03 0.  1.
     -623   -1    0    0    0    0  0.00000000000E+00  0.00000000000E+00  0.42561509872E-11  0.25126700000E+02  0.25126700000E+02 0.  1.
      622    2    1    2    0    0 -0.11168149333E-01 -0.98132849896E-05  0.11651227925E+02  0.11651810180E+02  0.11594643965E+00 0.  0.
       11    1    1    2    0    0  0.10428229002E-01  0.25360706344E-03  0.34803313233E+00  0.34818979695E+00  0.51109989000E-03 0.  1.
     -623    1    1    2    0    0  0.73992033061E-03 -0.24379377845E-03  0.73893142673E-03  0.25126700023E+02  0.25126700000E+02 0.  1.
     -611    1    3    3    0    0 -0.39872319817E-01 -0.45558975475E-01  0.66118038867E+01  0.66120886305E+01  0.10000000000E-01 0.  1.
      611    1    3    3    0    0  0.28704170485E-01  0.45549162190E-01  0.50394240387E+01  0.50397215496E+01  0.10000000000E-01 0. -1.
</event>
<event>
 7   0  0.6206631E-02  0.9118800E+02  0.7818608E-02  0.1180000E+00
       11   -1    0    0    0    0  0.00000000000E+00  0.00000000000E+00  0.11999999989E+02  0.12000000000E+02  0.51109989000E-03 0. -1.
     -623   -1    0    0    0    0  0.00000000000E+00  0.00000000000E+00  0.42561509872E-11  0.25126700000E+02  0.25126700000E+02 0. -1.
      622    2    1    2    0    0  0.13805509043E+00  0.17337978609E-01  0.46512988591E+01  0.46544098525E+01  0.97929489740E-01 0.  0.
       11    1    1    2    0    0 -0.13789422377E+00  0.72783146104E-02  0.73442796578E+01  0.73455776998E+01  0.51109989000E-03 0. -1.
     -623    1    1    2    0    0 -0.16086666447E-03 -0.24616293219E-01  0.44214721981E-02  0.25126712448E+02  0.25126700000E+02 0. -1.
     -611    1    3    3    0    0  0.14106232577E+00  0.29671640795E-01  0.44851377925E+01  0.44874647635E+01  0.10000000000E-01 0. -1.
      611    1    3    3    0    0 -0.30072353358E-02 -0.12333662187E-01  0.16616106657E+00  0.16694508896E+00  0.10000000000E-01 0. -1.
</event>
<event>
 7   0  0.6206631E-02  0.9118800E+02  0.7818608E-02  0.1180000E+00
       11   -1    0    0    0    0  0.00000000000E+00  0.00000000000E+00  0.11999999989E+02  0.12000000000E+02  0.51109989000E-03 0.  1.
     -623   -1    0    0    0    0  0.00000000000E+00  0.00000000000E+00  0.42561509872E-11  0.25126700000E+02  0.25126700000E+02 0.  1.
      622    2    1    2    0    0  0.63870653913E-02  0.43603496643E-02  0.11983079924E+02  0.11983477993E+02  0.97367949654E-01 0.  0.
       11    1    1    2    0    0  0.58589718221E-02 -0.81587789428E-02  0.13103610980E-01  0.16518446310E-01  0.51109989000E-03 0.  1.
     -623    1    1    2    0    0 -0.12246037213E-01  0.37984292786E-02  0.38164537913E-02  0.25126703561E+02  0.25126700000E+02 0.  1.
     -611    1    3    3    0    0 -0.84622138576E-02  0.35626074045E-01  0.99921961272E+01  0.99922682245E+01  0.10000000000E-01 0.  1.
      611    1    3    3    0    0  0.14849279249E-01 -0.31265724380E-01  0.19908837972E+01  0.19912097681E+01  0.10000000000E-01 0. -1.
</event>
<event>
 7   0  0.6206631E-02  0.9118800E+02  0.7818608E-02  0.1180000E+00
       11   -1    0    0    0    0  0.00000000000E+00  0.00000000000E+00  0.11999999989E+02  0.12000000000E+02  0.51109989000E-03 0.  1.
     -623   -1    0    0    0    0  0.00000000000E+00  0.00000000000E+00  0.42561509872E-11  0.25126700000E+02  0.25126700000E+02 0. -1.
      622    2    1    2    0    0 -0.98156307534E-01 -0.89653376224E-01  0.74682485920E+01  0.74703503145E+01  0.11715118876E+00 0.  0.
       11    1    1    2    0    0  0.53165614753E-01  0.16173880405E+00  0.45263045648E+01  0.45295054143E+01  0.51109989000E-03 0.  1.
     -623    1    1    2    0    0  0.44990692780E-01 -0.72085427830E-01  0.54468323025E-02  0.25126844271E+02  0.25126700000E+02 0. -1.
     -611    1    3    3    0    0 -0.14544833590E-01 -0.30987517699E-02  0.39313239251E+01  0.39313647705E+01  0.10000000000E-01 0.  1.
      611    1    3    3    0    0 -0.83611473944E-01 -0.86554624454E-01  0.35369246669E+01  0.35389855440E+01  0.10000000000E-01 0. -1.
</event>
<event>
 7   0  0.6206631E-02  0.9118800E+02  0.7818608E-02  0.1180000E+00
       11   -1    0    0    0    0  0.00000000000E+00  0.00000000000E+00  0.11999999989E+02  0.12000000000E+02  0.51109989000E-03 0. -1.
     -623   -1    0    0    0    0  0.00000000000E+00  0.00000000000E+00  0.42561509872E-11  0.25126700000E+02  0.25126700000E+02 0. -1.
      622    2    1    2    0    0 -0.21908196972E-03  0.34760868261E-03  0.11981817605E+02  0.11982520261E+02  0.12976323823E+00 0.  0.
       11    1    1    2    0    0  0.12448680206E-02 -0.10835052930E-02  0.17394103834E-01  0.17479695405E-01  0.51109989000E-03 0. -1.
     -623    1    1    2    0    0 -0.10257860509E-02  0.73589661044E-03  0.78827997937E-03  0.25126700044E+02  0.25126700000E+02 0. -1.
     -611    1    3    3    0    0 -0.58768433995E-01  0.98764254262E-02  0.82160055190E+01  0.82162277208E+01  0.10000000000E-01 0. -1.
      611    1    3    3    0    0  0.58549352025E-01 -0.95288167436E-02  0.37658120863E+01  0.37662925397E+01  0.10000000000E-01 0.  1.
</event>
<event>
 7   0  0.6206631E-02  0.9118800E+02  0.7818608E-02  0.1180000E+00
       11   -1    0    0    0    0  0.00000000000E+00  0.00000000000E+00  0.11999999989E+02  0.12000000000E+02  0.51109989000E-03 0. -1.
     -623   -1    0    0    0    0  0.00000000000E+00  0.00000000000E+00  0.42561509872E-11  0.25126700000E+02  0.25126700000E+02 0.  1.
      622    2    1    2    0    0 -0.53758174682E-02 -0.51883240017E-01  0.45104018325E+01  0.45121141493E+01  0.11282125474E+00 0.  0.
       11    1    1    2    0    0  0.89864689613E-02  0.39060704550E-01  0.74877749622E+01  0.74878822534E+01  0.51109989000E-03 0. -1.
     -623    1    1    2    0    0 -0.36106514930E-02  0.12822535467E-01  0.18231944522E-02  0.25126703597E+02  0.25126700000E+02 0.  1.
     -611    1    3    3    0    0  0.41157348421E-01  0.11324021292E-01  0.13063164274E+01  0.13070519382E+01  0.10000000000E-01 0.  1.
      611    1    3    3    0    0 -0.46533165889E-01 -0.63207261308E-01  0.32040854051E+01  0.32050622111E+01  0.10000000000E-01 0. -1.
</event>
<event>
 7   0  0.6206631E-02  0.9118800E+02  0.7818608E-02  0.1180000E+00
       11   -1    0    0    0    0  0.00000000000E+00  0.00000000000E+00  0.11999999989E+02  0.12000000000E+02  0.51109989000E-03 0. -1.
     -623   -1    0    0    0    0  0.00000000000E+00  0.00000000000E+00  0.42561509872E-11  0.25126700000E+02  0.25126700000E+02 0. -1.
      622    2    1    2    0    0  0.89362040607E-01  0.35563450638E-01  0.90304960026E+01  0.90315481015E+01  0.98755876265E-01 0.  0.
       11    1    1    2    0    0 -0.11882375381E+00  0.36199516813E-02  0.29660223982E+01  0.29684038331E+01  0.51109989000E-03 0. -1.
     -623    1    1    2    0    0  0.29461713199E-01 -0.39183402319E-01  0.34815883218E-02  0.25126748065E+02  0.25126700000E+02 0. -1.
     -611    1    3    3    0    0  0.95120664551E-01  0.13094219031E-01  0.83883769859E+01  0.83889324623E+01  0.10000000000E-01 0. -1.
      611    1    3    3    0    0 -0.57586239432E-02  0.22469231607E-01  0.64211901674E+00  0.64261563923E+00  0.10000000000E-01 0.  1.
</event>
<event>
 7   0  0.6206631E-02  0.9118800E+02  0.7818608E-02  0.1180000E+00
       11   -1    0    0    0    0  0.00000000000E+00  0.00000000000E+00  0.11999999989E+02  0.12000000000E+02  0.51109989000E-03 0. -1.
     -623   -1    0    0    0    0  0.00000000000E+00  0.00000000000E+00  0.42561509872E-11  0.25126700000E+02  0.25126700000E+02 0. -1.
      622    2    1    2    0    0 -0.18444902219E-02 -0.34408826810E-03  0.11942037143E+02  0.11942542296E+02  0.10982641878E+00 0.  0.
       11    1    1    2    0    0  0.28798742661E-03 -0.22859414836E-02  0.57409023391E-01  0.57457511737E-01  0.51109989000E-03 0. -1.
     -623    1    1    2    0    0  0.15565027952E-02  0.26300297517E-02  0.55382224897E-03  0.25126700192E+02  0.25126700000E+02 0. -1.
     -611    1    3    3    0    0 -0.21838810198E-01 -0.19576617544E-01  0.11000072341E+02  0.11000115985E+02  0.10000000000E-01 0. -1.
      611    1    3    3    0    0  0.19994319977E-01  0.19232529276E-01  0.94196480248E+00  0.94242631124E+00  0.10000000000E-01 0.  1.
</event>
<event>
 7   0  0.6206631E-02  0.9118800E+02  0.7818608E-02  0.1180000E+00
       11   -1    0    0    0    0  0.00000000000E+00  0.00000000000E+00  0.11999999989E+02  0.12000000000E+02  0.51109989000E-03 0.  1.
     -623   -1    0    0    0    0  0.00000000000E+00  0.00000000000E+00  0.42561509872E-11  0.25126700000E+02  0.25126700000E+02 0. -1.
      622    2    1    2    0    0 -0.12460355722E+00  0.90039508466E-01  0.10291430398E+02  0.10293351611E+02  0.12615308853E+00 0.  0.
       11    1    1    2    0    0  0.11268736294E+00 -0.86827238881E-01  0.17007047081E+01  0.17066441271E+01  0.51109989000E-03 0.  1.
     -623    1    1    2    0    0  0.11916194284E-01 -0.32122695859E-02  0.78648834427E-02  0.25126704262E+02  0.25126700000E+02 0. -1.
     -611    1    3    3    0    0  0.61030406082E-02 -0.22951958013E-01  0.12722101552E+01  0.12724711072E+01  0.10000000000E-01 0. -1.
      611    1    3    3    0    0 -0.13070659783E+00  0.11299146648E+00  0.90192202423E+01  0.90208805039E+01  0.10000000000E-01 0.  1.
</event>
<event>
 7   0  0.6206631E-02  0.9118800E+02  0.7818608E-02  0.1180000E+00
       11   -1    0    0    0    0  0.00000000000E+00  0.00000000000E+00  0.11999999989E+02  0.12000000000E+02  0.51109989000E-03 0.  1.
     -623   -1    0    0    0    0  0.00000000000E+00  0.00000000000E+00  0.42561509872E-11  0.25126700000E+02  0.25126700000E+02 0.  1.
      622    2    1    2    0    0 -0.15536723293E-02 -0.54347900826E-02  0.11488844291E+02  0.11489243811E+02  0.95646452283E-01 0.  0.
       11    1    1    2    0    0  0.93129272103E-03  0.56084028020E-02  0.51072427948E+00  0.51075617702E+00  0.51109989000E-03 0.  1.
     -623    1    1    2    0    0  0.62237960830E-03 -0.17361271944E-03  0.43141818671E-03  0.25126700012E+02  0.25126700000E+02 0.  1.
     -611    1    3    3    0    0  0.76987047717E-02  0.40474116839E-01  0.35140183366E+01  0.35142740779E+01  0.10000000000E-01 0. -1.
      611    1    3    3    0    0 -0.92523771010E-02 -0.45908906922E-01  0.79748259548E+01  0.79749697331E+01  0.10000000000E-01 0.  1.
</event>
<event>
 7   0  0.6206631E-02  0.9118800E+02  0.7818608E-02  0.1180000E+00
       11   -1    0    0    0    0  0.00000000000E+00  0.00000000000E+00  0.11999999989E+02  0.12000000000E+02  0.51109989000E-03 0. -1.
     -623   -1    0    0    0    0  0.00000000000E+00  0.00000000000E+00  0.42561509872E-11  0.25126700000E+02  0.25126700000E+02 0. -1.
      622    2    1    2    0    0 -0.25070402062E-01 -0.11391214594E-02  0.11468461613E+02  0.11470126288E+02  0.19379232792E+00 0.  0.
       11    1    1    2    0    0  0.25359607549E-01 -0.73356667118E-02  0.52921388634E+00  0.52987217366E+00  0.51109989000E-03 0. -1.
     -623    1    1    2    0    0 -0.28920548672E-03  0.84747881712E-02  0.23244896129E-02  0.25126701538E+02  0.25126700000E+02 0. -1.
     -611    1    3    3    0    0  0.27583763042E-02  0.19670835359E-01  0.11071224125E+02  0.11071246460E+02  0.10000000000E-01 0. -1.
      611    1    3    3    0    0 -0.27828778366E-01 -0.20809956818E-01  0.39723748856E+00  0.39887982842E+00  0.10000000000E-01 0.  1.
</event>
<event>
 7   0  0.6206631E-02  0.9118800E+02  0.7818608E-02  0.1180000E+00
       11   -1    0    0    0    0  0.00000000000E+00  0.00000000000E+00  0.11999999989E+02  0.12000000000E+02  0.51109989000E-03 0.  1.
     -623   -1    0    0    0    0  0.00000000000E+00  0.00000000000E+00  0.42561509872E-11  0.25126700000E+02  0.25126700000E+02 0. -1.
      622    2    1    2    0    0  0.98488629148E-01  0.38740149742E-01  0.52641914628E+01  0.52666059785E+01  0.11927265631E+00 0.  0.
       11    1    1    2    0    0 -0.83570225958E-01  0.22157022829E-01  0.67327605009E+01  0.67333156127E+01  0.51109989000E-03 0.  1.
     -623    1    1    2    0    0 -0.14918403190E-01 -0.60897172571E-01  0.30480254089E-02  0.25126778409E+02  0.25126700000E+02 0. -1.
     -611    1    3    3    0    0  0.99538353075E-01 -0.65053811164E-02  0.24751089519E+01  0.24771383747E+01  0.10000000000E-01 0.  1.
      611    1    3    3    0    0 -0.10497239268E-02  0.45245530859E-01  0.27890825109E+01  0.27894676038E+01  0.10000000000E-01 0. -1.
</event>
<event>
 7   0  0.6206631E-02  0.9118800E+02  0.7818608E-02  0.1180000E+00
       11   -1    0    0    0    0  0.00000000000E+00  0.00000000000E+00  0.11999999989E+02  0.12000000000E+02  0.51109989000E-03 0.  1.
     -623   -1    0    0    0    0  0.00000000000E+00  0.00000000000E+00  0.42561509872E-11  0.25126700000E+02  0.25126700000E+02 0.  1.
      622    2    1    2    0    0  0.12790131060E-01 -0.14171757950E-01  0.11458015739E+02  0.11458532205E+02  0.10710371272E+00 0.  0.
       11    1    1    2    0    0 -0.10524181208E-01  0.16578340735E-01  0.54111113449E+00  0.54146756216E+00  0.51109989000E-03 0.  1.
     -623    1    1    2    0    0 -0.22659498517E-02 -0.24065827853E-02  0.87311596774E-03  0.25126700233E+02  0.25126700000E+02 0.  1.
     -611    1    3    3    0    0  0.16232353368E-01  0.28727997316E-01  0.14175496695E+01  0.14179689180E+01  0.10000000000E-01 0. -1.
      611    1    3    3    0    0 -0.34422223078E-02 -0.42899755266E-01  0.10040466069E+02  0.10040563287E+02  0.10000000000E-01 0.  1.
</event>
<event>
 7   0  0.6206631E-02  0.9118800E+02  0.7818608E-02  0.1180000E+00
       11   -1    0    0    0    0  0.00000000000E+00  0.00000000000E+00  0.11999999989E+02  0.12000000000E+02  0.51109989000E-03 0. -1.
     -623   -1    0    0    0    0  0.00000000000E+00  0.00000000000E+00  0.42561509872E-11  0.25126700000E+02  0.25126700000E+02 0. -1.
      622    2    1    2    0    0  0.25915742787E-02  0.21018247522E-02  0.11865590712E+02  0.11865754711E+02  0.62295875917E-01 0.  0.
       11    1    1    2    0    0  0.77141003955E-02 -0.70922142672E-02  0.13383208640E+00  0.13424267362E+00  0.51109989000E-03 0. -1.
     -623    1    1    2    0    0 -0.10305674674E-01  0.49903895150E-02  0.57719067999E-03  0.25126702616E+02  0.25126700000E+02 0. -1.
     -611    1    3    3    0    0 -0.12272718692E-01 -0.23722989899E-01  0.40273625799E+01  0.40274635628E+01  0.10000000000E-01 0.  1.
      611    1    3    3    0    0  0.14864292971E-01  0.25824814652E-01  0.78382281322E+01  0.78382911480E+01  0.10000000000E-01 0. -1.
</event>
<event>
 7   0  0.6206631E-02  0.9118800E+02  0.7818608E-02  0.1180000E+00
       11   -1    0    0    0    0  0.00000000000E+00  0.00000000000E+00  0.11999999989E+02  0.12000000000E+02  0.51109989000E-03 0.  1.
     -623   -1    0    0    0    0  0.00000000000E+00  0.00000000000E+00  0.42561509872E-11  0.25126700000E+02  0.25126700000E+02 0.  1.
      622    2    1    2    0    0 -0.12543118535E-02 -0.25920690476E-03  0.11994113283E+02  0.11994657781E+02  0.11428125035E+00 0.  0.
       11    1    1    2    0    0  0.10436640454E-02  0.11054059445E-02  0.50957459934E-02  0.53421912459E-02  0.51109989000E-03 0.  1.
     -623    1    1    2    0    0  0.21064780816E-03 -0.84619903969E-03  0.79096023709E-03  0.25126700028E+02  0.25126700000E+02 0.  1.
     -611    1    3    3    0    0  0.15559900660E-01 -0.21165945074E-01  0.77748158466E+00  0.77798953864E+00  0.10000000000E-01 0. -1.
      611    1    3    3    0    0 -0.16814212514E-01  0.20906738169E-01  0.11216631698E+02  0.11216668243E+02  0.10000000000E-01 0.  1.
</event>
<event>
 7   0  0.6206631E-02  0.9118800E+02  0.7818608E-02  0.1180000E+00
       11   -1    0    0    0    0  0.00000000000E+00  0.00000000000E+00  0.11999999989E+02  0.12000000000E+02  0.51109989000E-03 0. -1.
     -623   -1    0    0    0    0  0.00000000000E+00  0.00000000000E+00  0.42561509872E-11  0.25126700000E+02  0.25126700000E+02 0.  1.
      622    2    1    2    0    0 -0.23187236290E-01  0.84313118517E-02  0.89868396734E+01  0.89874928059E+01  0.10550300807E+00 0.  0.
       11    1    1    2    0    0  0.23437259372E-01 -0.98874331106E-02  0.30123996972E+01  0.30125071392E+01  0.51109989000E-03 0. -1.
     -623    1    1    2    0    0 -0.25002308209E-03  0.14561212589E-02  0.76061845063E-03  0.25126700055E+02  0.25126700000E+02 0.  1.
     -611    1    3    3    0    0 -0.30308891473E-01 -0.35036919134E-01  0.69075476358E+01  0.69077102252E+01  0.10000000000E-01 0. -1.
      611    1    3    3    0    0  0.71216551840E-02  0.43468230986E-01  0.20792920376E+01  0.20797825806E+01  0.10000000000E-01 0.  1.
</event>
<event>
 7   0  0.6206631E-02  0.9118800E+02  0.7818608E-02  0.1180000E+00
       11   -1    0    0    0    0  0.00000000000E+00  0.00000000000E+00  0.11999999989E+02  0.12000000000E+02  0.51109989000E-03 0.  1.
     -623   -1    0    0    0    0  0.00000000000E+00  0.00000000000E+00  0.42561509872E-11  0.25126700000E+02  0.25126700000E+02 0. -1.
      622    2    1    2    0    0 -0.86963057345E-03 -0.14843135539E-02  0.11941913550E+02  0.11942180477E+02  0.79826966459E-01 0.  0.
       11    1    1    2    0    0 -0.31187102523E-03 -0.23382332668E-03  0.57815861928E-01  0.57819434886E-01  0.51109989000E-03 0.  1.
     -623    1    1    2    0    0  0.11815015987E-02  0.17181368805E-02  0.27057682247E-03  0.25126700088E+02  0.25126700000E+02 0. -1.
     -611    1    3    3    0    0  0.20787404400E-01  0.27014375081E-01  0.33887158261E+01  0.33889020114E+01  0.10000000000E-01 0. -1.
      611    1    3    3    0    0 -0.21657034973E-01 -0.28498688635E-01  0.85531977242E+01  0.85532784657E+01  0.10000000000E-01 0.  1.
</event>
<event>
 7   0  0.6206631E-02  0.9118800E+02  0.7818608E-02  0.1180000E+00
       11   -1    0    0    0    0  0.00000000000E+00  0.00000000000E+00  0.11999999989E+02  0.12000000000E+02  0.51109989000E-03 0.  1.
     -623   -1    0    0    0    0  0.00000000000E+00  0.00000000000E+00  0.42561509872E-11  0.25126700000E+02  0.25126700000E+02 0. -1.
      622    2    1    2    0    0  0.10442142218E-01  0.10061349946E-01  0.11741997750E+02  0.11742688335E+02  0.12652239083E+00 0.  0.
       11    1    1    2    0    0 -0.11795626786E-01 -0.88281697619E-02  0.25688890801E+00  0.25731157314E+00  0.51109989000E-03 0.  1.
     -623    1    1    2    0    0  0.13534845670E-02 -0.12331801837E-02  0.11133311689E-02  0.25126700091E+02  0.25126700000E+02 0. -1.
     -611    1    3    3    0    0  0.27182030317E-01 -0.40505352352E-01  0.23181614065E+01  0.23186961536E+01  0.10000000000E-01 0. -1.
      611    1    3    3    0    0 -0.16739888099E-01  0.50566702297E-01  0.94238363435E+01  0.94239921818E+01  0.10000000000E-01 0.  1.
</event>
<event>
 7   0  0.6206631E-02  0.9118800E+02  0.7818608E-02  0.1180000E+00
       11   -1    0    0    0    0  0.00000000000E+00  0.00000000000E+00  0.11999999989E+02  0.12000000000E+02  0.51109989000E-03 0.  1.
     -623   -1    0    0    0    0  0.00000000000E+00  0.00000000000E+00  0.42561509872E-11  0.25126700000E+02  0.25126700000E+02 0. -1.
      622    2    1    2    0    0 -0.99750791947E-02  0.71846690595E-02  0.11439448131E+02  0.11439827910E+02  0.92400968664E-01 0.  0.
       11    1    1    2    0    0  0.79574905124E-02 -0.75967271658E-02  0.56006372665E+00  0.56017200131E+00  0.51109989000E-03 0.  1.
     -623    1    1    2    0    0  0.20175886823E-02  0.41205810636E-03  0.48813155748E-03  0.25126700089E+02  0.25126700000E+02 0. -1.
     -611    1    3    3    0    0  0.14275305539E-01 -0.34602061734E-01  0.32456057119E+01  0.32458369528E+01  0.10000000000E-01 0.  1.
      611    1    3    3    0    0 -0.24250384734E-01  0.41786730794E-01  0.81938424190E+01  0.81939909567E+01  0.10000000000E-01 0. -1.
</event>
<event>
 7   0  0.6206631E-02  0.9118800E+02  0.7818608E-02  0.1180000E+00
       11   -1    0    0    0    0  0.00000000000E+00  0.00000000000E+00  0.11999999989E+02  0.12000000000E+02  0.51109989000E-03 0.  1.
     -623   -1    0    0    0    0  0.00000000000E+00  0.00000000000E+00  0.42561509872E-11  0.25126700000E+02  0.25126700000E+02 0.  1.
      622    2    1    2    0    0 -0.10539470641E-02 -0.39451556724E-02  0.11119038336E+02  0.11119211078E+02  0.61844940178E-01 0.  0.
       11    1    1    2    0    0  0.15525831708E-02  0.40977258545E-02  0.88077786726E+00  0.88078891600E+00  0.51109989000E-03 0.  1.
     -623    1    1    2    0    0 -0.49863610665E-03 -0.15257018209E-03  0.18378558421E-03  0.25126700006E+02  0.25126700000E+02 0.  1.
     -611    1    3    3    0    0 -0.26787752354E-01  0.93873957051E-02  0.66099490509E+01  0.66100175615E+01  0.10000000000E-01 0.  1.
      611    1    3    3    0    0  0.25733805290E-01 -0.13332551378E-01  0.45090892853E+01  0.45091935164E+01  0.10000000000E-01 0. -1.
</event>
<event>
 7   0  0.6206631E-02  0.9118800E+02  0.7818608E-02  0.1180000E+00
       11   -1    0    0    0    0  0.00000000000E+00  0.00000000000E+00  0.11999999989E+02  0.12000000000E+02  0.51109989000E-03 0.  1.
     -623   -1    0    0    0    0  0.00000000000E+00  0.00000000000E+00  0.42561509872E-11  0.25126700000E+02  0.25126700000E+02 0.  1.
      622    2    1    2    0    0 -0.17288949436E-01 -0.28250387156E-02  0.67312200526E+01  0.67316759758E+01  0.76362024968E-01 0.  0.
       11    1    1    2    0    0  0.13754561264E-01  0.10231822249E-02  0.52683056271E+01  0.52683237065E+01  0.51109989000E-03 0.  1.
     -623    1    1    2    0    0  0.35343881727E-02  0.18018564907E-02  0.47430945687E-03  0.25126700318E+02  0.25126700000E+02 0.  1.
     -611    1    3    3    0    0 -0.38214312018E-01  0.12113662001E-01  0.23072217840E+01  0.23075916959E+01  0.10000000000E-01 0.  1.
      611    1    3    3    0    0  0.20925362582E-01 -0.14938700716E-01  0.44239982686E+01  0.44240842800E+01  0.10000000000E-01 0. -1.
</event>
<event>
 7   0  0.6206631E-02  0.9118800E+02  0.7818608E-02  0.1180000E+00
       11   -1    0    0    0    0  0.00000000000E+00  0.00000000000E+00  0.11999999989E+02  0.12000000000E+02  0.51109989000E-03 0. -1.
     -623   -1    0    0    0    0  0.00000000000E+00  0.00000000000E+00  0.42561509872E-11  0.25126700000E+02  0.25126700000E+02 0. -1.
      622    2    1    2    0    0 -0.19027693805E-01 -0.29761654184E-02  0.11801250351E+02  0.11801706637E+02  0.10197444118E+00 0.  0.
       11    1    1    2    0    0  0.17108607629E-01 -0.28301635397E-02  0.19753221407E+00  0.19829258962E+00  0.51109989000E-03 0. -1.
     -623    1    1    2    0    0  0.19190861758E-02  0.58063289581E-02  0.12174242580E-02  0.25126700774E+02  0.25126700000E+02 0. -1.
     -611    1    3    3    0    0  0.24833124572E-01 -0.29930653834E-01  0.26320129665E+01  0.26323192785E+01  0.10000000000E-01 0. -1.
      611    1    3    3    0    0 -0.43860818377E-01  0.26954488415E-01  0.91692373843E+01  0.91693873583E+01  0.10000000000E-01 0. -1.
</event>
<event>
 7   0  0.6206631E-02  0.9118800E+02  0.7818608E-02  0.1180000E+00
       11   -1    0    0    0    0  0.00000000000E+00  0.00000000000E+00  0.11999999989E+02  0.12000000000E+02  0.51109989000E-03 0.  1.
     -623   -1    0    0    0    0  0.00000000000E+00  0.00000000000E+00  0.42561509872E-11  0.25126700000E+02  0.25126700000E+02 0.  1.
      622    2    1    2    0    0  0.26002609642E-02 -0.10962279986E-01  0.11947668596E+02  0.11948023870E+02  0.91447142411E-01 0.  0.
       11    1    1    2    0    0 -0.35373539615E-01 -0.69826887909E-02  0.37388003582E-01  0.51943905154E-01  0.51109989000E-03 0.  1.
     -623    1    1    2    0    0  0.32773278651E-01  0.17944968777E-01  0.14943389419E-01  0.25126732225E+02  0.25126700000E+02 0.  1.
     -611    1    3    3    0    0  0.43378536151E-01 -0.17882701077E-01  0.74297051233E+01  0.74298600059E+01  0.10000000000E-01 0.  1.
      611    1    3    3    0    0 -0.40778275187E-01  0.69204210913E-02  0.45179634728E+01  0.45181638640E+01  0.10000000000E-01 0. -1.
</event>
<event>
 6   0  0.6206631E-02  0.9118800E+02  0.7818608E-02  0.1180000E+00
       11   -1    0    0    0    0  0.00000000000E+00  0.00000000000E+00  0.11999999989E+02  0.12000000000E+02  0.51109989000E-03 0.  1.
     -623   -1    0    0    0    0  0.00000000000E+00  0.00000000000E+00  0.42561509872E-11  0.25126700000E+02  0.25126700000E+02 0. -1.
       11    1    1    2    0    0 -0.30287149701E-02 -0.53983710848E-02  0.20219601912E+00  0.20229139105E+00  0.51109989000E-03 0.  1.
     -623    1    1    2    0    0 -0.20092865504E-02 -0.47387639142E-02  0.20640247899E-02  0.25126700612E+02  0.25126700000E+02 0. -1.
     -611    1    1    2    0    0 -0.98805941914E-01  0.35168242690E-01  0.68009598706E+01  0.68017758403E+01  0.10000000000E-01 0. -1.
      611    1    1    2    0    0  0.10384394343E+00 -0.25031107691E-01  0.49947800746E+01  0.49959321567E+01  0.10000000000E-01 0.  1.
</event>
<event>
 7   0  0.6206631E-02  0.9118800E+02  0.7818608E-02  0.1180000E+00
       11   -1    0    0    0    0  0.00000000000E+00  0.00000000000E+00  0.11999999989E+02  0.12000000000E+02  0.51109989000E-03 0. -1.
     -623   -1    0    0    0    0  0.00000000000E+00  0.00000000000E+00  0.42561509872E-11  0.25126700000E+02  0.25126700000E+02 0. -1.
      622    2    1    2    0    0  0.67878449512E-01 -0.20360398412E-01  0.74362467172E+01  0.74371781364E+01  0.93975339676E-01 0.  0.
       11    1    1    2    0    0  0.19604350815E-01  0.55558377540E-01  0.45622644511E+01  0.45626448741E+01  0.51109989000E-03 0. -1.
     -623    1    1    2    0    0 -0.87482800328E-01 -0.35197979128E-01  0.14888208230E-02  0.25126876989E+02  0.25126700000E+02 0. -1.
     -611    1    3    3    0    0  0.26866821160E-01  0.27543077461E-01  0.47754072940E+01  0.47755727689E+01  0.10000000000E-01 0.  1.
      611    1    3    3    0    0  0.41011628352E-01 -0.47903475873E-01  0.26608394231E+01  0.26616053675E+01  0.10000000000E-01 0. -1.
</event>
<event>
 7   0  0.6206631E-02  0.9118800E+02  0.7818608E-02  0.1180000E+00
       11   -1    0    0    0    0  0.00000000000E+00  0.00000000000E+00  0.11999999989E+02  0.12000000000E+02  0.51109989000E-03 0. -1.
     -623   -1    0    0    0    0  0.00000000000E+00  0.00000000000E+00  0.42561509872E-11  0.25126700000E+02  0.25126700000E+02 0.  1.
      622    2    1    2    0    0  0.18616729585E-02 -0.21277647772E-01  0.10774141926E+02  0.10774628790E+02  0.10017547950E+00 0.  0.
       11    1    1    2    0    0  0.43568894278E-02  0.12425750883E-01  0.12252980195E+01  0.12253688749E+01  0.51109989000E-03 0. -1.
     -623    1    1    2    0    0 -0.62185623864E-02  0.88518968890E-02  0.56004396448E-03  0.25126702335E+02  0.25126700000E+02 0.  1.
     -611    1    3    3    0    0  0.36204618657E-01  0.19976222893E-01  0.64816030911E+01  0.64817427020E+01  0.10000000000E-01 0. -1.
      611    1    3    3    0    0 -0.34342945699E-01 -0.41253870665E-01  0.42925388346E+01  0.42928860882E+01  0.10000000000E-01 0.  1.
</event>
<event>
 7   0  0.6206631E-02  0.9118800E+02  0.7818608E-02  0.1180000E+00
       11   -1    0    0    0    0  0.00000000000E+00  0.00000000000E+00  0.11999999989E+02  0.12000000000E+02  0.51109989000E-03 0.  1.
     -623   -1    0    0    0    0  0.00000000000E+00  0.00000000000E+00  0.42561509872E-11  0.25126700000E+02  0.25126700000E+02 0.  1.
      622    2    1    2    0    0 -0.85251395451E-03 -0.96473341544E-02  0.11704103369E+02  0.11704357320E+02  0.76490589086E-01 0.  0.
       11    1    1    2    0    0  0.10139715961E-01  0.62043244245E-02  0.29540119870E+00  0.29564072267E+00  0.51109989000E-03 0.  1.
     -623    1    1    2    0    0 -0.92872020063E-02  0.34430097298E-02  0.49542146241E-03  0.25126701957E+02  0.25126700000E+02 0.  1.
     -611    1    3    3    0    0 -0.25036155711E-01  0.97130369453E-02  0.91713368782E+01  0.91713816454E+01  0.10000000000E-01 0.  1.
      611    1    3    3    0    0  0.24183641757E-01 -0.19360371100E-01  0.25327664907E+01  0.25329756748E+01  0.10000000000E-01 0.  1.
</event>
<event>
 7   0  0.6206631E-02  0.9118800E+02  0.7818608E-02  0.1180000E+00
       11   -1    0    0    0    0  0.00000000000E+00  0.00000000000E+00  0.11999999989E+02  0.12000000000E+02  0.51109989000E-03 0.  1.
     -623   -1    0    0    0    0  0.00000000000E+00  0.00000000000E+00  0.42561509872E-11  0.25126700000E+02  0.25126700000E+02 0.  1.
      622    2    1    2    0    0 -0.12965848322E-01  0.38993244027E-01  0.11598947644E+02  0.11599592368E+02  0.11518706539E+00 0.  0.
       11    1    1    2    0    0  0.18324529196E-01 -0.35393349772E-01  0.39841781907E+00  0.40040666497E+00  0.51109989000E-03 0.  1.
     -623    1    1    2    0    0 -0.53586808740E-02 -0.35998942553E-02  0.26345260321E-02  0.25126700967E+02  0.25126700000E+02 0.  1.
     -611    1    3    3    0    0 -0.34209185412E-01  0.59244280820E-02  0.11528795149E+01  0.11534455094E+01  0.10000000000E-01 0. -1.
      611    1    3    3    0    0  0.21243337090E-01  0.33068815945E-01  0.10446068129E+02  0.10446146858E+02  0.10000000000E-01 0.  1.
</event>
<event>
 7   0  0.6206631E-02  0.9118800E+02  0.7818608E-02  0.1180000E+00
       11   -1    0    0    0    0  0.00000000000E+00  0.00000000000E+00  0.11999999989E+02  0.12000000000E+02  0.51109989000E-03 0.  1.
     -623   -1    0    0    0    0  0.00000000000E+00  0.00000000000E+00  0.42561509872E-11  0.25126700000E+02  0.25126700000E+02 0.  1.
      622    2    1    2    0    0 -0.67434579903E-02 -0.42881731645E-02  0.11814885891E+02  0.11815304532E+02  0.99139772368E-01 0.  0.
       11    1    1    2    0    0 -0.62964709027E-02  0.64942130770E-02  0.18446963351E+00  0.18469197941E+00  0.51109989000E-03 0.  1.
     -623    1    1    2    0    0  0.13039928893E-01 -0.22060399125E-02  0.64446437732E-03  0.25126703489E+02  0.25126700000E+02 0.  1.
     -611    1    3    3    0    0 -0.16217678785E-01  0.29089192565E-01  0.99948648150E+01  0.99949253056E+01  0.10000000000E-01 0.  1.
      611    1    3    3    0    0  0.94742207947E-02 -0.33377365729E-01  0.18200210762E+01  0.18203792263E+01  0.10000000000E-01 0. -1.
</event>
<event>
 7   0  0.6206631E-02  0.9118800E+02  0.7818608E-02  0.1180000E+00
       11   -1    0    0    0    0  0.00000000000E+00  0.00000000000E+00  0.11999999989E+02  0.12000000000E+02  0.51109989000E-03 0.  1.
     -623   -1    0    0    0    0  0.00000000000E+00  0.00000000000E+00  0.42561509872E-11  0.25126700000E+02  0.25126700000E+02 0.  1.
      622    2    1    2    0    0 -0.71410974143E-03 -0.16236003110E-02  0.11990112487E+02  0.11990545632E+02  0.10190174432E+00 0.  0.
       11    1    1    2    0    0 -0.35160643910E-03 -0.52559496156E-03  0.94192205992E-02  0.94542486217E-02  0.51109989000E-03 0.  1.
     -623    1    1    2    0    0  0.10657161805E-02  0.21491952726E-02  0.46828141205E-03  0.25126700119E+02  0.25126700000E+02 0.  1.
     -611    1    3    3    0    0  0.28635947696E-01  0.25281528717E-01  0.22487907437E+01  0.22491373862E+01  0.10000000000E-01 0.  1.
      611    1    3    3    0    0 -0.29350057437E-01 -0.26905129028E-01  0.97413217434E+01  0.97414082463E+01  0.10000000000E-01 0.  1.
</event>
<event>
 7   0  0.6206631E-02  0.9118800E+02  0.7818608E-02  0.1180000E+00
       11   -1    0    0    0    0  0.00000000000E+00  0.00000000000E+00  0.11999999989E+02  0.12000000000E+02  0.51109989000E-03 0.  1.
     -623   -1    0    0    0    0  0.00000000000E+00  0.00000000000E+00  0.42561509872E-11  0.25126700000E+02  0.25126700000E+02 0. -1.
      622    2    1    2    0    0  0.20869375296E+00 -0.90767554136E-01  0.49704265868E+01  0.49773416659E+01  0.13037550685E+00 0.  0.
       11    1    1    2    0    0 -0.18550140793E+00  0.11784328835E+00  0.70191913104E+01  0.70226308978E+01  0.51109989000E-03 0.  1.
     -623    1    1    2    0    0 -0.23192345029E-01 -0.27075734213E-01  0.10382091865E-01  0.25126727436E+02  0.25126700000E+02 0. -1.
     -611    1    3    3    0    0  0.57696112220E-02 -0.14118129217E-01  0.78210571258E-01  0.80308800531E-01  0.10000000000E-01 0.  1.
      611    1    3    3    0    0  0.20292414173E+00 -0.76649424919E-01  0.48922160156E+01  0.48970328654E+01  0.10000000000E-01 0.  1.
</event>
<event>
 7   0  0.6206631E-02  0.9118800E+02  0.7818608E-02  0.1180000E+00
       11   -1    0    0    0    0  0.00000000000E+00  0.00000000000E+00  0.11999999989E+02  0.12000000000E+02  0.51109989000E-03 0.  1.
     -623   -1    0    0    0    0  0.00000000000E+00  0.00000000000E+00  0.42561509872E-11  0.25126700000E+02  0.25126700000E+02 0.  1.
      622    2    1    2    0    0 -0.21748574639E-02  0.69730461833E-03  0.11976564158E+02  0.11976928000E+02  0.93327764199E-01 0.  0.
       11    1    1    2    0    0  0.28857102214E-02 -0.27039229964E-03  0.22883500688E-01  0.23071980026E-01  0.51109989000E-03 0.  1.
     -623    1    1    2    0    0 -0.71085275742E-03 -0.42691231869E-03  0.55233026545E-03  0.25126700020E+02  0.25126700000E+02 0.  1.
     -611    1    3    3    0    0  0.12144888490E-01 -0.33088162095E-01  0.95105481820E+01  0.95106187520E+01  0.10000000000E-01 0.  1.
      611    1    3    3    0    0 -0.14319745954E-01  0.33785466713E-01  0.24660159762E+01  0.24663092482E+01  0.10000000000E-01 0. -1.
</event>
<event>
 7   0  0.6206631E-02  0.9118800E+02  0.7818608E-02  0.1180000E+00
       11   -1    0    0    0    0  0.00000000000E+00  0.00000000000E+00  0.11999999989E+02  0.12000000000E+02  0.51109989000E-03 0.  1.
     -623   -1    0    0    0    0  0.00000000000E+00  0.00000000000E+00  0.42561509872E-11  0.25126700000E+02  0.25126700000E+02 0.  1.
      622    2    1    2    0    0  0.17602022796E-01 -0.11319016727E-01  0.10477090096E+02  0.10477774597E+02  0.11792229432E+00 0.  0.
       11    1    1    2    0    0 -0.18974735840E-01  0.68685692230E-02  0.15220911092E+01  0.15222249583E+01  0.51109989000E-03 0.  1.
     -623    1    1    2    0    0  0.13727130445E-02  0.44504475043E-02  0.81878388889E-03  0.25126700445E+02  0.25126700000E+02 0.  1.
     -611    1    3    3    0    0 -0.11717843764E-01 -0.23825548535E-03  0.96723169060E+01  0.96723291764E+01  0.10000000000E-01 0.  1.
      611    1    3    3    0    0  0.29319866560E-01 -0.11080761242E-01  0.80477318996E+00  0.80544542033E+00  0.10000000000E-01 0. -1.
</event>
<event>
 7   0  0.6206631E-02  0.9118800E+02  0.7818608E-02  0.1180000E+00
       11   -1    0    0    0    0  0.00000000000E+00  0.00000000000E+00  0.11999999989E+02  0.12000000000E+02  0.51109989000E-03 0. -1.
     -623   -1    0    0    0    0  0.00000000000E+00  0.00000000000E+00  0.42561509872E-11  0.25126700000E+02  0.25126700000E+02 0.  1.
      622    2    1    2    0    0  0.78330119464E-04  0.13429565728E-02  0.11998125786E+02  0.11998684944E+02  0.11582829693E+00 0.  0.
       11    1    1    2    0    0 -0.77339702810E-03  0.25905044116E-03  0.89592964223E-03  0.13149764883E-02  0.51109989000E-03 0. -1.
     -623    1    1    2    0    0  0.69506690863E-03 -0.16020070139E-02  0.97827349923E-03  0.25126700080E+02  0.25126700000E+02 0.  1.
     -611    1    3    3    0    0 -0.18800872501E-01  0.52226058576E-01  0.76695947040E+01  0.76698020807E+01  0.10000000000E-01 0.  1.
      611    1    3    3    0    0  0.18879202621E-01 -0.50883102004E-01  0.43285310820E+01  0.43288828631E+01  0.10000000000E-01 0. -1.
</event>
<event>
 7   0  0.6206631E-02  0.9118800E+02  0.7818608E-02  0.1180000E+00
       11   -1    0    0    0    0  0.00000000000E+00  0.00000000000E+00  0.11999999989E+02  0.12000000000E+02  0.51109989000E-03 0. -1.
     -623   -1    0    0    0    0  0.00000000000E+00  0.00000000000E+00  0.42561509872E-11  0.25126700000E+02  0.25126700000E+02 0. -1.
      622    2    1    2    0    0  0.91597436337E-02  0.50899410607E-02  0.11915558063E+02  0.11915976838E+02  0.99349080354E-01 0.  0.
       11    1    1    2    0    0 -0.13202557006E-01 -0.27156708665E-02  0.82932907027E-01  0.84022679502E-01  0.51109989000E-03 0. -1.
     -623    1    1    2    0    0  0.40428133720E-02 -0.23742701942E-02  0.15090192021E-02  0.25126700483E+02  0.25126700000E+02 0. -1.
     -611    1    3    3    0    0 -0.25272107253E-01  0.18682737021E-01  0.98950301881E+01  0.98950851511E+01  0.10000000000E-01 0. -1.
      611    1    3    3    0    0  0.34431850887E-01 -0.13592795960E-01  0.20205278748E+01  0.20208916867E+01  0.10000000000E-01 0.  1.
</event>
<event>
 7   0  0.6206631E-02  0.9118800E+02  0.7818608E-02  0.1180000E+00
       11   -1    0    0    0    0  0.00000000000E+00  0.00000000000E+00  0.11999999989E+02  0.12000000000E+02  0.51109989000E-03 0. -1.
     -623   -1    0    0    0    0  0.00000000000E+00  0.00000000000E+00  0.42561509872E-11  0.25126700000E+02  0.25126700000E+02 0. -1.
      622    2    1    2    0    0 -0.24871447828E-02  0.53911986587E-02  0.11963881705E+02  0.11964390406E+02  0.11016844328E+00 0.  0.
       11    1    1    2    0    0  0.47186191132E-03 -0.44423067469E-02  0.35324457281E-01  0.35609482561E-01  0.51109989000E-03 0. -1.
     -623    1    1    2    0    0  0.20152828715E-02 -0.94889191178E-03  0.79382670994E-03  0.25126700111E+02  0.25126700000E+02 0. -1.
     -611    1    3    3    0    0 -0.44579897649E-02 -0.49321286138E-01  0.73382168688E+01  0.73383907825E+01  0.10000000000E-01 0.  1.
      611    1    3    3    0    0  0.19708449821E-02  0.54712484797E-01  0.46256648363E+01  0.46259996237E+01  0.10000000000E-01 0. -1.
</event>
<event>
 7   0  0.6206631E-02  0.9118800E+02  0.7818608E-02  0.1180000E+00
       11   -1    0    0    0    0  0.00000000000E+00  0.00000000000E+00  0.11999999989E+02  0.12000000000E+02  0.51109989000E-03 0. -1.
     -623   -1    0    0    0    0  0.00000000000E+00  0.00000000000E+00  0.42561509872E-11  0.25126700000E+02  0.25126700000E+02 0. -1.
      622    2    1    2    0    0  0.31720010723E-02 -0.66471140985E-02  0.11784243165E+02  0.11784855269E+02  0.11988535250E+00 0.  0.
       11    1    1    2    0    0  0.39220984408E-02  0.78474565351E-03  0.21510524503E+00  0.21514303694E+00  0.51109989000E-03 0. -1.
     -623    1    1    2    0    0 -0.70940995131E-02  0.58623684449E-02  0.65157898188E-03  0.25126701694E+02  0.25126700000E+02 0. -1.
     -611    1    3    3    0    0 -0.38271140684E-02 -0.48272954392E-02  0.11359607299E+00  0.11420165228E+00  0.10000000000E-01 0. -1.
      611    1    3    3    0    0  0.69991151407E-02 -0.18198186593E-02  0.11670647092E+02  0.11670653617E+02  0.10000000000E-01 0. -1.
</event>
<event>
 7   0  0.6206631E-02  0.9118800E+02  0.7818608E-02  0.1180000E+00
       11   -1    0    0    0    0  0.00000000000E+00  0.00000000000E+00  0.11999999989E+02  0.12000000000E+02  0.51109989000E-03 0. -1.
     -623   -1    0    0    0    0  0.00000000000E+00  0.00000000000E+00  0.42561509872E-11  0.25126700000E+02  0.25126700000E+02 0. -1.
      622    2    1    2    0    0 -0.10154712463E-01  0.40059806241E-02  0.11831240201E+02  0.11831958978E+02  0.12995924778E+00 0.  0.
       11    1    1    2    0    0  0.10209931863E-01 -0.24865963821E-02  0.16771128525E+00  0.16804095421E+00  0.51109989000E-03 0. -1.
     -623    1    1    2    0    0 -0.55219399728E-04 -0.15193842420E-02  0.10485033332E-02  0.25126700068E+02  0.25126700000E+02 0. -1.
     -611    1    3    3    0    0  0.20827904454E-01  0.24190340561E-01  0.85789004039E+00  0.85854195913E+00  0.10000000000E-01 0.  1.
      611    1    3    3    0    0 -0.30982616917E-01 -0.20184359937E-01  0.10973350160E+02  0.10973417019E+02  0.10000000000E-01 0. -1.
</event>
<event>
 7   0  0.6206631E-02  0.9118800E+02  0.7818608E-02  0.1180000E+00
       11   -1    0    0    0    0  0.00000000000E+00  0.00000000000E+00  0.11999999989E+02  0.12000000000E+02  0.51109989000E-03 0. -1.
     -623   -1    0    0    0    0  0.00000000000E+00  0.00000000000E+00  0.42561509872E-11  0.25126700000E+02  0.25126700000E+02 0. -1.
      622    2    1    2    0    0  0.32084548748E-02  0.41004728798E-02  0.11967025176E+02  0.11967286634E+02  0.78934749189E-01 0.  0.
       11    1    1    2    0    0  0.68382737168E-03  0.96572573430E-02  0.31239443212E-01  0.32709238368E-01  0.51109989000E-03 0. -1.
     -623    1    1    2    0    0 -0.38922822465E-02 -0.13757730223E-01  0.17353694758E-02  0.25126704128E+02  0.25126700000E+02 0. -1.
     -611    1    3    3    0    0 -0.33961740824E-02 -0.33134368070E-01  0.35438128000E+01  0.35439834342E+01  0.10000000000E-01 0. -1.
      611    1    3    3    0    0  0.66046289573E-02  0.37234840950E-01  0.84232123763E+01  0.84233031995E+01  0.10000000000E-01 0.  1.
</event>
<event>
 7   0  0.6206631E-02  0.9118800E+02  0.7818608E-02  0.1180000E+00
       11   -1    0    0    0    0  0.00000000000E+00  0.00000000000E+00  0.11999999989E+02  0.12000000000E+02  0.51109989000E-03 0.  1.
     -623   -1    0    0    0    0  0.00000000000E+00  0.00000000000E+00  0.42561509872E-11  0.25126700000E+02  0.25126700000E+02 0. -1.
      622    2    1    2    0    0  0.25326086752E-01 -0.80745011751E-01  0.58662065733E+01  0.58676107110E+01  0.96512836785E-01 0.  0.
       11    1    1    2    0    0 -0.18723110467E-01  0.83717824311E-01  0.61317880853E+01  0.61323881655E+01  0.51109989000E-03 0.  1.
     -623    1    1    2    0    0 -0.66029762852E-02 -0.29728125595E-02  0.20053305651E-02  0.25126701123E+02  0.25126700000E+02 0. -1.
     -611    1    3    3    0    0 -0.28707276351E-01 -0.42208877265E-02  0.93299361211E+00  0.93349826130E+00  0.10000000000E-01 0. -1.
      611    1    3    3    0    0  0.54033363103E-01 -0.76524124025E-01  0.49332129612E+01  0.49341124497E+01  0.10000000000E-01 0.  1.
</event>
<event>
 7   0  0.6206631E-02  0.9118800E+02  0.7818608E-02  0.1180000E+00
       11   -1    0    0    0    0  0.00000000000E+00  0.00000000000E+00  0.11999999989E+02  0.12000000000E+02  0.51109989000E-03 0.  1.
     -623   -1    0    0    0    0  0.00000000000E+00  0.00000000000E+00  0.42561509872E-11  0.25126700000E+02  0.25126700000E+02 0. -1.
      622    2    1    2    0    0  0.13257034658E-01  0.24178800109E-01  0.77124234021E+01  0.77137929334E+01  0.14271062521E+00 0.  0.
       11    1    1    2    0    0 -0.17094483732E-02  0.15107930573E+00  0.42829285937E+01  0.42855927803E+01  0.51109989000E-03 0.  1.
     -623    1    1    2    0    0 -0.11547586285E-01 -0.17525810584E+00  0.46479933674E-02  0.25127314286E+02  0.25126700000E+02 0. -1.
     -611    1    3    3    0    0  0.33468322745E-01  0.72247989461E-01  0.60249765380E+01  0.60255109479E+01  0.10000000000E-01 0.  1.
      611    1    3    3    0    0 -0.20211288087E-01 -0.48069189352E-01  0.16874468641E+01  0.16882819855E+01  0.10000000000E-01 0. -1.
</event>
<event>
 7   0  0.6206631E-02  0.9118800E+02  0.7818608E-02  0.1180000E+00
       11   -1    0    0    0    0  0.00000000000E+00  0.00000000000E+00  0.11999999989E+02  0.12000000000E+02  0.51109989000E-03 0.  1.
     -623   -1    0    0    0    0  0.00000000000E+00  0.00000000000E+00  0.42561509872E-11  0.25126700000E+02  0.25126700000E+02 0. -1.
      622    2    1    2    0    0  0.11919441803E-01 -0.28452662910E-01  0.10490077318E+02  0.10490841270E+02  0.12278756950E+00 0.  0.
       11    1    1    2    0    0 -0.22690755828E-01  0.33100230639E-01  0.15086222022E+01  0.15091559581E+01  0.51109989000E-03 0.  1.
     -623    1    1    2    0    0  0.10771314025E-01 -0.46475677292E-02  0.13004691966E-02  0.25126702772E+02  0.25126700000E+02 0. -1.
     -611    1    3    3    0    0  0.40904139081E-01 -0.17947796619E-02  0.13175050269E+01  0.13181789961E+01  0.10000000000E-01 0. -1.
      611    1    3    3    0    0 -0.28984697278E-01 -0.26657883248E-01  0.91725722908E+01  0.91726622736E+01  0.10000000000E-01 0.  1.
</event>
<event>
 7   0  0.6206631E-02  0.9118800E+02  0.7818608E-02  0.1180000E+00
       11   -1    0    0    0    0  0.00000000000E+00  0.00000000000E+00  0.11999999989E+02  0.12000000000E+02  0.51109989000E-03 0. -1.
     -623   -1    0    0    0    0  0.00000000000E+00  0.00000000000E+00  0.42561509872E-11  0.25126700000E+02  0.25126700000E+02 0. -1.
      622    2    1    2    0    0  0.14809401674E-01  0.36788896173E-02  0.10920899105E+02  0.10921224603E+02  0.82925979168E-01 0.  0.
       11    1    1    2    0    0 -0.15092130721E-01 -0.41605071500E-02  0.10786616667E+01  0.10787753866E+01  0.51109989000E-03 0. -1.
     -623    1    1    2    0    0  0.28272904746E-03  0.48161753267E-03  0.43921717049E-03  0.25126700010E+02  0.25126700000E+02 0. -1.
     -611    1    3    3    0    0  0.32875232079E-01  0.80008108352E-02  0.10077283236E+02  0.10077344998E+02  0.10000000000E-01 0. -1.
      611    1    3    3    0    0 -0.18065830406E-01 -0.43219212179E-02  0.84361586952E+00  0.84387960548E+00  0.10000000000E-01 0.  1.
</event>
<event>
 7   0  0.6206631E-02  0.9118800E+02  0.7818608E-02  0.1180000E+00
       11   -1    0    0    0    0  0.00000000000E+00  0.00000000000E+00  0.11999999989E+02  0.12000000000E+02  0.51109989000E-03 0. -1.
     -623   -1    0    0    0    0  0.00000000000E+00  0.00000000000E+00  0.42561509872E-11  0.25126700000E+02  0.25126700000E+02 0.  1.
      622    2    1    2    0    0  0.10595157164E+00 -0.59777948893E-02  0.11205778158E+02  0.11206677811E+02  0.94350215449E-01 0.  0.
       11    1    1    2    0    0 -0.97709320600E-01  0.13060676030E-01  0.78717014884E+00  0.79331884954E+00  0.51109989000E-03 0. -1.
     -623    1    1    2    0    0 -0.82422510436E-02 -0.70828811409E-02  0.70516824354E-02  0.25126703340E+02  0.25126700000E+02 0.  1.
     -611    1    3    3    0    0  0.63862384890E-01  0.35087472281E-01  0.80500685063E+01  0.80504044924E+01  0.10000000000E-01 0.  1.
      611    1    3    3    0    0  0.42089186753E-01 -0.41065267171E-01  0.31557096516E+01  0.31562733184E+01  0.10000000000E-01 0. -1.
</event>
<event>
 7   0  0.6206631E-02  0.9118800E+02  0.7818608E-02  0.1180000E+00
       11   -1    0    0    0    0  0.00000000000E+00  0.00000000000E+00  0.11999999989E+02  0.12000000000E+02  0.51109989000E-03 0. -1.
     -623   -1    0    0    0    0  0.00000000000E+00  0.00000000000E+00  0.42561509872E-11  0.25126700000E+02  0.25126700000E+02 0. -1.
      622    2    1    2    0    0 -0.21165419100E-01 -0.44503994702E-01  0.10777245719E+02  0.10777808722E+02  0.98524081286E-01 0.  0.
       11    1    1    2    0    0  0.32264423042E-01  0.35704272922E-01  0.12212393704E+01  0.12221872398E+01  0.51109989000E-03 0. -1.
     -623    1    1    2    0    0 -0.11099003942E-01  0.87997217798E-02  0.15149001029E-02  0.25126704038E+02  0.25126700000E+02 0. -1.
     -611    1    3    3    0    0 -0.86733416384E-03 -0.39285841024E-01  0.10218754025E+02  0.10218834471E+02  0.10000000000E-01 0. -1.
      611    1    3    3    0    0 -0.20298084936E-01 -0.52181536781E-02  0.55849169380E+00  0.55897425113E+00  0.10000000000E-01 0.  1.
</event>
<event>
 7   0  0.6206631E-02  0.9118800E+02  0.7818608E-02  0.1180000E+00
       11   -1    0    0    0    0  0.00000000000E+00  0.00000000000E+00  0.11999999989E+02  0.12000000000E+02  0.51109989000E-03 0.  1.
     -623   -1    0    0    0    0  0.00000000000E+00  0.00000000000E+00  0.42561509872E-11  0.25126700000E+02  0.25126700000E+02 0. -1.
      622    2    1    2    0    0  0.13243931115E-01 -0.25356812367E-01  0.11750145862E+02  0.11750789744E+02  0.11963889097E+00 0.  0.
       11    1    1    2    0    0 -0.12216827871E-01  0.27114085330E-01  0.24742871011E+00  0.24921005661E+00  0.51109989000E-03 0.  1.
     -623    1    1    2    0    0 -0.10271032438E-02 -0.17572729639E-02  0.24254173122E-02  0.25126700200E+02  0.25126700000E+02 0. -1.
     -611    1    3    3    0    0  0.36536987334E-01 -0.33979059542E-01  0.11070129592E+02  0.11070246551E+02  0.10000000000E-01 0.  1.
      611    1    3    3    0    0 -0.23293056220E-01  0.86222471759E-02  0.68001627015E+00  0.68054319282E+00  0.10000000000E-01 0. -1.
</event>
<event>
 7   0  0.6206631E-02  0.9118800E+02  0.7818608E-02  0.1180000E+00
       11   -1    0    0    0    0  0.00000000000E+00  0.00000000000E+00  0.11999999989E+02  0.12000000000E+02  0.51109989000E-03 0. -1.
     -623   -1    0    0    0    0  0.00000000000E+00  0.00000000000E+00  0.42561509872E-11  0.25126700000E+02  0.25126700000E+02 0. -1.
      622    2    1    2    0    0  0.64088731595E-03 -0.10601290811E-02  0.11993980460E+02  0.11994324848E+02  0.90883213896E-01 0.  0.
       11    1    1    2    0    0 -0.39087072882E-03  0.31576760685E-02  0.46712959879E-02  0.56750266414E-02  0.51109989000E-03 0. -1.
     -623    1    1    2    0    0 -0.25001658712E-03 -0.20975469874E-02  0.13482331014E-02  0.25126700125E+02  0.25126700000E+02 0. -1.
     -611    1    3    3    0    0 -0.13712639053E-01 -0.34045839474E-01  0.26846213162E+01  0.26848908296E+01  0.10000000000E-01 0.  1.
      611    1    3    3    0    0  0.14353526369E-01  0.32985710393E-01  0.93093591438E+01  0.93094340188E+01  0.10000000000E-01 0. -1.
</event>
<event>
 7   0  0.6206631E-02  0.9118800E+02  0.7818608E-02  0.1180000E+00
       11   -1    0    0    0    0  0.00000000000E+00  0.00000000000E+00  0.11999999989E+02  0.12000000000E+02  0.51109989000E-03 0. -1.
     -623   -1    0    0    0    0  0.00000000000E+00  0.00000000000E+00  0.42561509872E-11  0.25126700000E+02  0.25126700000E+02 0. -1.
      622    2    1    2    0    0 -0.57112194000E-03  0.16281328038E-02  0.11995917032E+02  0.11996528240E+02  0.12108418841E+00 0.  0.
       11    1    1    2    0    0  0.20421883603E-03 -0.45015641002E-03  0.33981282703E-02  0.34717207513E-02  0.51109989000E-03 0. -1.
     -623    1    1    2    0    0  0.36690310398E-03 -0.11779763938E-02  0.68482852430E-03  0.25126700040E+02  0.25126700000E+02 0. -1.
     -611    1    3    3    0    0 -0.16863634208E-04  0.58068893090E-01  0.43936195957E+01  0.43940146960E+01  0.10000000000E-01 0.  1.
      611    1    3    3    0    0 -0.55425830580E-03 -0.56440760286E-01  0.76022974366E+01  0.76025135436E+01  0.10000000000E-01 0. -1.
</event>
<event>
 7   0  0.6206631E-02  0.9118800E+02  0.7818608E-02  0.1180000E+00
       11   -1    0    0    0    0  0.00000000000E+00  0.00000000000E+00  0.11999999989E+02  0.12000000000E+02  0.51109989000E-03 0.  1.
     -623   -1    0    0    0    0  0.00000000000E+00  0.00000000000E+00  0.42561509872E-11  0.25126700000E+02  0.25126700000E+02 0.  1.
      622    2    1    2    0    0  0.21702860631E-02 -0.43751516166E-02  0.11819890821E+02  0.11820129420E+02  0.74944281161E-01 0.  0.
       11    1    1    2    0    0 -0.33499507272E-02  0.23554771843E-02  0.17982311850E+00  0.17987046898E+00  0.51109989000E-03 0.  1.
     -623    1    1    2    0    0  0.11796646641E-02  0.20196744323E-02  0.28604961057E-03  0.25126700110E+02  0.25126700000E+02 0.  1.
     -611    1    3    3    0    0 -0.21558153152E-01 -0.41903599267E-02  0.10242553141E+02  0.10242581568E+02  0.10000000000E-01 0.  1.
      611    1    3    3    0    0  0.23728439215E-01 -0.18479168985E-03  0.15773376795E+01  0.15775478529E+01  0.10000000000E-01 0. -1.
</event>
<event>
 7   0  0.6206631E-02  0.9118800E+02  0.7818608E-02  0.1180000E+00
       11   -1    0    0    0    0  0.00000000000E+00  0.00000000000E+00  0.11999999989E+02  0.12000000000E+02  0.51109989000E-03 0.  1.
     -623   -1    0    0    0    0  0.00000000000E+00  0.00000000000E+00  0.42561509872E-11  0.25126700000E+02  0.25126700000E+02 0.  1.
      622    2    1    2    0    0 -0.31541749901E-01 -0.18391607041E-01  0.31097746001E+01  0.31109588249E+01  0.77676337715E-01 0.  0.
       11    1    1    2    0    0  0.28434412370E-01  0.12131047432E-01  0.88889864016E+01  0.88890401725E+01  0.51109989000E-03 0.  1.
     -623    1    1    2    0    0  0.31073375312E-02  0.62605596087E-02  0.12389873534E-02  0.25126701003E+02  0.25126700000E+02 0.  1.
     -611    1    3    3    0    0  0.15134249483E-01 -0.21014942511E-01  0.51801390762E+00  0.51875724747E+00  0.10000000000E-01 0.  1.
      611    1    3    3    0    0 -0.46675999384E-01  0.26233354704E-02  0.25917606925E+01  0.25922015774E+01  0.10000000000E-01 0. -1.
</event>
<event>
 7   0  0.6206631E-02  0.9118800E+02  0.7818608E-02  0.1180000E+00
       11   -1    0    0    0    0  0.00000000000E+00  0.00000000000E+00  0.11999999989E+02  0.12000000000E+02  0.51109989000E-03 0. -1.
     -623   -1    0    0    0    0  0.00000000000E+00  0.00000000000E+00  0.42561509872E-11  0.25126700000E+02  0.25126700000E+02 0.  1.
      622    2    1    2    0    0 -0.11192406540E-02 -0.25029547463E-02  0.11754164090E+02  0.11754611132E+02  0.10247883626E+00 0.  0.
       11    1    1    2    0    0  0.41589138759E-03  0.31438557338E-02  0.24536782052E+00  0.24538884523E+00  0.51109989000E-03 0. -1.
     -623    1    1    2    0    0  0.70334926638E-03 -0.64090098747E-03  0.46807903803E-03  0.25126700022E+02  0.25126700000E+02 0.  1.
     -611    1    3    3    0    0 -0.44312191607E-01  0.21550328705E-01  0.69634715563E+01  0.69636530717E+01  0.10000000000E-01 0. -1.
      611    1    3    3    0    0  0.43192950953E-01 -0.24053283451E-01  0.47906925332E+01  0.47909580607E+01  0.10000000000E-01 0.  1.
</event>
<event>
 7   0  0.6206631E-02  0.9118800E+02  0.7818608E-02  0.1180000E+00
       11   -1    0    0    0    0  0.00000000000E+00  0.00000000000E+00  0.11999999989E+02  0.12000000000E+02  0.51109989000E-03 0.  1.
     -623   -1    0    0    0    0  0.00000000000E+00  0.00000000000E+00  0.42561509872E-11  0.25126700000E+02  0.25126700000E+02 0.  1.
      622    2    1    2    0    0  0.69341718335E-03  0.29378419752E-01  0.11551475759E+02  0.11551561524E+02  0.33434336269E-01 0.  0.
       11    1    1    2    0    0  0.20348045106E-01  0.45365003419E-02  0.44792158615E+00  0.44840676995E+00  0.51109989000E-03 0.  1.
     -623    1    1    2    0    0 -0.21041462289E-01 -0.33914920094E-01  0.60264357052E-03  0.25126731706E+02  0.25126700000E+02 0.  1.
     -611    1    3    3    0    0 -0.10813826793E-01  0.13015297044E-01  0.73463030944E+01  0.73463293890E+01  0.10000000000E-01 0.  1.
      611    1    3    3    0    0  0.11507243976E-01  0.16363122708E-01  0.42051726651E+01  0.42052321353E+01  0.10000000000E-01 0. -1.
</event>
<event>
 7   0  0.6206631E-02  0.9118800E+02  0.7818608E-02  0.1180000E+00
       11   -1    0    0    0    0  0.00000000000E+00  0.00000000000E+00  0.11999999989E+02  0.12000000000E+02  0.51109989000E-03 0.  1.
     -623   -1    0    0    0    0  0.00000000000E+00  0.00000000000E+00  0.42561509872E-11  0.25126700000E+02  0.25126700000E+02 0.  1.
      622    2    1    2    0    0  0.75061871900E-02 -0.71607265287E-03  0.11973570675E+02  0.11974156442E+02  0.11819874322E+00 0.  0.
       11    1    1    2    0    0 -0.47674746989E-02 -0.24893987315E-02  0.25272172137E-01  0.25843177604E-01  0.51109989000E-03 0.  1.
     -623    1    1    2    0    0 -0.27387124911E-02  0.32054713844E-02  0.11571423781E-02  0.25126700380E+02  0.25126700000E+02 0.  1.
     -611    1    3    3    0    0  0.29252133583E-01  0.34231505373E-01  0.10106848676E+02  0.10106953925E+02  0.10000000000E-01 0.  1.
      611    1    3    3    0    0 -0.21745946393E-01 -0.34947578025E-01  0.18667219991E+01  0.18672025175E+01  0.10000000000E-01 0. -1.
</event>
<event>
 7   0  0.6206631E-02  0.9118800E+02  0.7818608E-02  0.1180000E+00
       11   -1    0    0    0    0  0.00000000000E+00  0.00000000000E+00  0.11999999989E+02  0.12000000000E+02  0.51109989000E-03 0.  1.
     -623   -1    0    0    0    0  0.00000000000E+00  0.00000000000E+00  0.42561509872E-11  0.25126700000E+02  0.25126700000E+02 0.  1.
      622    2    1    2    0    0 -0.25720540395E-01  0.10962879552E-01  0.11946757561E+02  0.11947319167E+02  0.11241580073E+00 0.  0.
       11    1    1    2    0    0  0.26034110557E-01  0.51610159494E-02  0.45496449930E-01  0.52674464188E-01  0.51109989000E-03 0.  1.
     -623    1    1    2    0    0 -0.31357016253E-03 -0.16123895502E-01  0.77459780956E-02  0.25126706369E+02  0.25126700000E+02 0.  1.
     -611    1    3    3    0    0 -0.82502083072E-02 -0.49076834883E-01  0.63653764308E+01  0.63655788196E+01  0.10000000000E-01 0. -1.
      611    1    3    3    0    0 -0.17470332088E-01  0.60039714436E-01  0.55813811302E+01  0.55817403470E+01  0.10000000000E-01 0.  1.
</event>
<event>
 7   0  0.6206631E-02  0.9118800E+02  0.7818608E-02  0.1180000E+00
       11   -1    0    0    0    0  0.00000000000E+00  0.00000000000E+00  0.11999999989E+02  0.12000000000E+02  0.51109989000E-03 0.  1.
     -623   -1    0    0    0    0  0.00000000000E+00  0.00000000000E+00  0.42561509872E-11  0.25126700000E+02  0.25126700000E+02 0. -1.
      622    2    1    2    0    0  0.45740877266E-03  0.15177964064E-02  0.11983115659E+02  0.11983383610E+02  0.80120719194E-01 0.  0.
       11    1    1    2    0    0 -0.19010813363E-02 -0.23044490073E-03  0.16497679082E-01  0.16616312868E-01  0.51109989000E-03 0.  1.
     -623    1    1    2    0    0  0.14436725636E-02 -0.12873515057E-02  0.38665112962E-03  0.25126700077E+02  0.25126700000E+02 0. -1.
     -611    1    3    3    0    0 -0.11076640432E-01 -0.99596957788E-02  0.11264242420E+02  0.11264256708E+02  0.10000000000E-01 0.  1.
      611    1    3    3    0    0  0.11534049204E-01  0.11477492185E-01  0.71887323939E+00  0.71912690217E+00  0.10000000000E-01 0. -1.
</event>
<event>
 7   0  0.6206631E-02  0.9118800E+02  0.7818608E-02  0.1180000E+00
       11   -1    0    0    0    0  0.00000000000E+00  0.00000000000E+00  0.11999999989E+02  0.12000000000E+02  0.51109989000E-03 0. -1.
     -623   -1    0    0    0    0  0.00000000000E+00  0.00000000000E+00  0.42561509872E-11  0.25126700000E+02  0.25126700000E+02 0. -1.
      622    2    1    2    0    0  0.12051089951E-01  0.59052771357E-02  0.11656162813E+02  0.11656704076E+02  0.11152711372E+00 0.  0.
       11    1    1    2    0    0 -0.14954293972E-01 -0.15480216172E-01  0.34261811680E+00  0.34329390204E+00  0.51109989000E-03 0. -1.
     -623    1    1    2    0    0  0.29032040214E-02  0.95749390365E-02  0.12190592585E-02  0.25126702022E+02  0.25126700000E+02 0. -1.
     -611    1    3    3    0    0  0.91032958285E-03 -0.98130288252E-02  0.11213983364E+02  0.11213992154E+02  0.10000000000E-01 0. -1.
      611    1    3    3    0    0  0.11140760368E-01  0.15718305961E-01  0.44217944861E+00  0.44271192265E+00  0.10000000000E-01 0.  1.
</event>
<event>
 7   0  0.6206631E-02  0.9118800E+02  0.7818608E-02  0.1180000E+00
       11   -1    0    0    0    0  0.00000000000E+00  0.00000000000E+00  0.11999999989E+02  0.12000000000E+02  0.51109989000E-03 0.  1.
     -623   -1    0    0    0    0  0.00000000000E+00  0.00000000000E+00  0.42561509872E-11  0.25126700000E+02  0.25126700000E+02 0.  1.
      622    2    1    2    0    0  0.47260842267E-01 -0.11483319685E+00  0.71063196493E+01  0.71080709770E+01  0.97333476664E-01 0.  0.
       11    1    1    2    0    0 -0.44788161253E-01  0.10350693397E+00  0.48906258963E+01  0.48919261630E+01  0.51109989000E-03 0.  1.
     -623    1    1    2    0    0 -0.24726810147E-02  0.11326262881E-01  0.30544435106E-02  0.25126702860E+02  0.25126700000E+02 0.  1.
     -611    1    3    3    0    0 -0.53742475884E-02  0.24747395897E-02  0.12001900398E+00  0.12058013182E+00  0.10000000000E-01 0. -1.
      611    1    3    3    0    0  0.52635089856E-01 -0.11730793644E+00  0.69863006453E+01  0.69874908451E+01  0.10000000000E-01 0.  1.
</event>
<event>
 7   0  0.6206631E-02  0.9118800E+02  0.7818608E-02  0.1180000E+00
       11   -1    0    0    0    0  0.00000000000E+00  0.00000000000E+00  0.11999999989E+02  0.12000000000E+02  0.51109989000E-03 0. -1.
     -623   -1    0    0    0    0  0.00000000000E+00  0.00000000000E+00  0.42561509872E-11  0.25126700000E+02  0.25126700000E+02 0.  1.
      622    2    1    2    0    0  0.13039426719E-02 -0.13887909052E-02  0.11983454571E+02  0.11983575106E+02  0.53714408278E-01 0.  0.
       11    1    1    2    0    0 -0.91857536071E-03  0.14656369027E-02  0.16325560233E-01  0.16424890025E-01  0.51109989000E-03 0. -1.
     -623    1    1    2    0    0 -0.38536731125E-03 -0.76845997443E-04  0.21985797685E-03  0.25126700004E+02  0.25126700000E+02 0.  1.
     -611    1    3    3    0    0  0.22539382368E-01  0.95248802955E-02  0.74236256977E+01  0.74236727599E+01  0.10000000000E-01 0. -1.
      611    1    3    3    0    0 -0.21235439696E-01 -0.10913671201E-01  0.45598288730E+01  0.45599023458E+01  0.10000000000E-01 0.  1.
</event>
<event>
 7   0  0.6206631E-02  0.9118800E+02  0.7818608E-02  0.1180000E+00
       11   -1    0    0    0    0  0.00000000000E+00  0.00000000000E+00  0.11999999989E+02  0.12000000000E+02  0.51109989000E-03 0. -1.
     -623   -1    0    0    0    0  0.00000000000E+00  0.00000000000E+00  0.42561509872E-11  0.25126700000E+02  0.25126700000E+02 0. -1.
      622    2    1    2    0    0 -0.93836686213E-01 -0.20188172725E+00  0.94790467634E+01  0.94821562709E+01  0.96945594696E-01 0.  0.
       11    1    1    2    0    0  0.11920539226E+00  0.19865756438E+00  0.25071452676E+01  0.25178269217E+01  0.51109989000E-03 0. -1.
     -623    1    1    2    0    0 -0.25368706051E-01  0.32241628713E-02  0.13807958071E-01  0.25126716807E+02  0.25126700000E+02 0. -1.
     -611    1    3    3    0    0 -0.62029450755E-01 -0.93599420882E-01  0.64613379242E+01  0.64623212761E+01  0.10000000000E-01 0. -1.
      611    1    3    3    0    0 -0.31807235458E-01 -0.10828230637E+00  0.30177088392E+01  0.30198349948E+01  0.10000000000E-01 0.  1.
</event>
<event>
 7   0  0.6206631E-02  0.9118800E+02  0.7818608E-02  0.1180000E+00
       11   -1    0    0    0    0  0.00000000000E+00  0.00000000000E+00  0.11999999989E+02  0.12000000000E+02  0.51109989000E-03 0.  1.
     -623   -1    0    0    0    0  0.00000000000E+00  0.00000000000E+00  0.42561509872E-11  0.25126700000E+02  0.25126700000E+02 0. -1.
      622    2    1    2    0    0  0.47287755694E-01 -0.14684535479E+00  0.89897803928E+01  0.89919188254E+01  0.12104941998E+00 0.  0.
       11    1    1    2    0    0 -0.45249844358E-01  0.18844886169E+00  0.30017953572E+01  0.30080452373E+01  0.51109989000E-03 0.  1.
     -623    1    1    2    0    0 -0.20379113364E-02 -0.41603506900E-01  0.84242391316E-02  0.25126735937E+02  0.25126700000E+02 0. -1.
     -611    1    3    3    0    0 -0.37130550002E-01 -0.25201260876E-01  0.16617911235E+01  0.16624269968E+01  0.10000000000E-01 0. -1.
      611    1    3    3    0    0  0.84418305696E-01 -0.12164409392E+00  0.73279892692E+01  0.73294918286E+01  0.10000000000E-01 0.  1.
</event>
<event>
 7   0  0.6206631E-02  0.9118800E+02  0.7818608E-02  0.1180000E+00
       11   -1    0    0    0    0  0.00000000000E+00  0.00000000000E+00  0.11999999989E+02  0.12000000000E+02  0.51109989000E-03 0. -1.
     -623   -1    0    0    0    0  0.00000000000E+00  0.00000000000E+00  0.42561509872E-11  0.25126700000E+02  0.25126700000E+02 0.  1.
      622    2    1    2    0    0  0.63480859590E-03 -0.33546112595E-03  0.11993451352E+02  0.11994263733E+02  0.13959459287E+00 0.  0.
       11    1    1    2    0    0  0.14220360551E-03 -0.15123133983E-03  0.57096492577E-02  0.57362366220E-02  0.51109989000E-03 0. -1.
     -623    1    1    2    0    0 -0.77701220142E-03  0.48669246578E-03  0.83898829839E-03  0.25126700031E+02  0.25126700000E+02 0.  1.
     -611    1    3    3    0    0  0.11183605550E-01  0.54087737047E-01  0.24368155557E+01  0.24374619195E+01  0.10000000000E-01 0.  1.
      611    1    3    3    0    0 -0.10548796954E-01 -0.54423198173E-01  0.95566357959E+01  0.95568018132E+01  0.10000000000E-01 0. -1.
</event>
<event>
 7   0  0.6206631E-02  0.9118800E+02  0.7818608E-02  0.1180000E+00
       11   -1    0    0    0    0  0.00000000000E+00  0.00000000000E+00  0.11999999989E+02  0.12000000000E+02  0.51109989000E-03 0.  1.
     -623   -1    0    0    0    0  0.00000000000E+00  0.00000000000E+00  0.42561509872E-11  0.25126700000E+02  0.25126700000E+02 0. -1.
      622    2    1    2    0    0 -0.32689560202E-02  0.24649243114E-02  0.11883000490E+02  0.11883111433E+02  0.51185272786E-01 0.  0.
       11    1    1    2    0    0  0.12244602805E-02 -0.23532350757E-02  0.11685725997E+00  0.11688848296E+00  0.51109989000E-03 0.  1.
     -623    1    1    2    0    0  0.20444957398E-02 -0.11168923573E-03  0.14223937470E-03  0.25126700084E+02  0.25126700000E+02 0. -1.
     -611    1    3    3    0    0 -0.92393777480E-02 -0.33205171109E-02  0.11054537315E+02  0.11054546197E+02  0.10000000000E-01 0.  1.
      611    1    3    3    0    0  0.59704217277E-02  0.57854414223E-02  0.82846317519E+00  0.82856523576E+00  0.10000000000E-01 0. -1.
</event>
<event>
 7   0  0.6206631E-02  0.9118800E+02  0.7818608E-02  0.1180000E+00
       11   -1    0    0    0    0  0.00000000000E+00  0.00000000000E+00  0.11999999989E+02  0.12000000000E+02  0.51109989000E-03 0.  1.
     -623   -1    0    0    0    0  0.00000000000E+00  0.00000000000E+00  0.42561509872E-11  0.25126700000E+02  0.25126700000E+02 0. -1.
      622    2    1    2    0    0  0.99900599429E-03  0.54006533268E-02  0.11591740096E+02  0.11591885108E+02  0.57721329365E-01 0.  0.
       11    1    1    2    0    0 -0.25843775799E-02 -0.48109487646E-02  0.40807797366E+00  0.40811483439E+00  0.51109989000E-03 0.  1.
     -623    1    1    2    0    0  0.15853715857E-02 -0.58970456226E-03  0.18192000197E-03  0.25126700058E+02  0.25126700000E+02 0. -1.
     -611    1    3    3    0    0 -0.18185620105E-01 -0.91809259697E-02  0.23830297812E+01  0.23831378357E+01  0.10000000000E-01 0. -1.
      611    1    3    3    0    0  0.19184626100E-01  0.14581579297E-01  0.92087103143E+01  0.92087472723E+01  0.10000000000E-01 0.  1.
</event>
<event>
 7   0  0.6206631E-02  0.9118800E+02  0.7818608E-02  0.1180000E+00
       11   -1    0    0    0    0  0.00000000000E+00  0.00000000000E+00  0.11999999989E+02  0.12000000000E+02  0.51109989000E-03 0. -1.
     -623   -1    0    0    0    0  0.00000000000E+00  0.00000000000E+00  0.42561509872E-11  0.25126700000E+02  0.25126700000E+02 0. -1.
      622    2    1    2    0    0  0.26667032387E-01  0.13150723250E+00  0.87508226293E+01  0.87522080229E+01  0.79014571609E-01 0.  0.
       11    1    1    2    0    0  0.32604769826E-01 -0.39898341041E-01  0.32471461630E+01  0.32475549901E+01  0.51109989000E-03 0. -1.
     -623    1    1    2    0    0 -0.59271802212E-01 -0.91608891459E-01  0.20311968005E-02  0.25126936987E+02  0.25126700000E+02 0. -1.
     -611    1    3    3    0    0  0.52240503794E-01  0.68634531084E-01  0.46259118542E+01  0.46267267319E+01  0.10000000000E-01 0.  1.
      611    1    3    3    0    0 -0.25573471407E-01  0.62872701416E-01  0.41249107752E+01  0.41254812910E+01  0.10000000000E-01 0. -1.
</event>
<event>
 7   0  0.6206631E-02  0.9118800E+02  0.7818608E-02  0.1180000E+00
       11   -1    0    0    0    0  0.00000000000E+00  0.00000000000E+00  0.11999999989E+02  0.12000000000E+02  0.51109989000E-03 0.  1.
     -623   -1    0    0    0    0  0.00000000000E+00  0.00000000000E+00  0.42561509872E-11  0.25126700000E+02  0.25126700000E+02 0. -1.
      622    2    1    2    0    0  0.13532093589E-01 -0.23377459325E-01  0.11751523765E+02  0.11752252998E+02  0.12810189350E+00 0.  0.
       11    1    1    2    0    0 -0.16981157271E-01  0.82939909316E-02  0.24701980581E+00  0.24774219599E+00  0.51109989000E-03 0.  1.
     -623    1    1    2    0    0  0.34490636821E-02  0.15083468393E-01  0.14564180214E-02  0.25126704806E+02  0.25126700000E+02 0. -1.
     -611    1    3    3    0    0  0.13932082410E-01  0.35617770197E-01  0.89634826828E+01  0.89635698543E+01  0.10000000000E-01 0.  1.
      611    1    3    3    0    0 -0.39998882035E-03 -0.58995229522E-01  0.27880410825E+01  0.27886831435E+01  0.10000000000E-01 0. -1.
</event>
<event>
 7   0  0.6206631E-02  0.9118800E+02  0.7818608E-02  0.1180000E+00
       11   -1    0    0    0    0  0.00000000000E+00  0.00000000000E+00  0.11999999989E+02  0.12000000000E+02  0.51109989000E-03 0.  1.
     -623   -1    0    0    0    0  0.00000000000E+00  0.00000000000E+00  0.42561509872E-11  0.25126700000E+02  0.25126700000E+02 0. -1.
      622    2    1    2    0    0 -0.14625865150E-01  0.90082906802E-02  0.11009159498E+02  0.11009528313E+02  0.88463221825E-01 0.  0.
       11    1    1    2    0    0  0.14755622956E-01 -0.95588715101E-02  0.99031549420E+00  0.99047167537E+00  0.51109989000E-03 0.  1.
     -623    1    1    2    0    0 -0.12975780649E-03  0.55058082994E-03  0.52499643745E-03  0.25126700012E+02  0.25126700000E+02 0. -1.
     -611    1    3    3    0    0 -0.36705387066E-02  0.47359383217E-01  0.65052702794E+01  0.65054513903E+01  0.10000000000E-01 0. -1.
      611    1    3    3    0    0 -0.10955326443E-01 -0.38351092537E-01  0.45038892190E+01  0.45040769224E+01  0.10000000000E-01 0.  1.
</event>
<event>
 7   0  0.6206631E-02  0.9118800E+02  0.7818608E-02  0.1180000E+00
       11   -1    0    0    0    0  0.00000000000E+00  0.00000000000E+00  0.11999999989E+02  0.12000000000E+02  0.51109989000E-03 0.  1.
     -623   -1    0    0    0    0  0.00000000000E+00  0.00000000000E+00  0.42561509872E-11  0.25126700000E+02  0.25126700000E+02 0.  1.
      622    2    1    2    0    0 -0.10364564432E-03 -0.27841609219E-02  0.11991005165E+02  0.11991424780E+02  0.10027771481E+00 0.  0.
       11    1    1    2    0    0  0.36993901015E-02 -0.32294365001E-02  0.70100169564E-02  0.85741651567E-02  0.51109989000E-03 0.  1.
     -623    1    1    2    0    0 -0.35957444572E-02  0.60135974220E-02  0.19848074090E-02  0.25126701055E+02  0.25126700000E+02 0.  1.
     -611    1    3    3    0    0 -0.32574463338E-01 -0.34889458102E-01  0.42780506275E+01  0.42783285920E+01  0.10000000000E-01 0. -1.
      611    1    3    3    0    0  0.32470817694E-01  0.32105297180E-01  0.77129545373E+01  0.77130961875E+01  0.10000000000E-01 0.  1.
</event>
<event>
 7   0  0.6206631E-02  0.9118800E+02  0.7818608E-02  0.1180000E+00
       11   -1    0    0    0    0  0.00000000000E+00  0.00000000000E+00  0.11999999989E+02  0.12000000000E+02  0.51109989000E-03 0.  1.
     -623   -1    0    0    0    0  0.00000000000E+00  0.00000000000E+00  0.42561509872E-11  0.25126700000E+02  0.25126700000E+02 0.  1.
      622    2    1    2    0    0  0.18611513680E-02 -0.36308742171E-03  0.11987204395E+02  0.11987703975E+02  0.10942490217E+00 0.  0.
       11    1    1    2    0    0 -0.19208206695E-02 -0.27613045235E-03  0.12131149108E-01  0.12296007559E-01  0.51109989000E-03 0.  1.
     -623    1    1    2    0    0  0.59669301488E-04  0.63921787405E-03  0.66444540045E-03  0.25126700017E+02  0.25126700000E+02 0.  1.
     -611    1    3    3    0    0 -0.65723597275E-02  0.80483848688E-02  0.11741000744E+02  0.11741009601E+02  0.10000000000E-01 0.  1.
      611    1    3    3    0    0  0.84335110955E-02 -0.84114722905E-02  0.24620365014E+00  0.24669437432E+00  0.10000000000E-01 0.  1.
</event>
<event>
 7   0  0.6206631E-02  0.9118800E+02  0.7818608E-02  0.1180000E+00
       11   -1    0    0    0    0  0.00000000000E+00  0.00000000000E+00  0.11999999989E+02  0.12000000000E+02  0.51109989000E-03 0. -1.
     -623   -1    0    0    0    0  0.00000000000E+00  0.00000000000E+00  0.42561509872E-11  0.25126700000E+02  0.25126700000E+02 0.  1.
      622    2    1    2    0    0 -0.63144038727E-02 -0.38781478324E-02  0.11743667980E+02  0.11743832593E+02  0.61736976269E-01 0.  0.
       11    1    1    2    0    0  0.41540939447E-02 -0.18966644721E-02  0.25612543246E+00  0.25616664929E+00  0.51109989000E-03 0. -1.
     -623    1    1    2    0    0  0.21603099281E-02  0.57748123045E-02  0.20657704131E-03  0.25126700757E+02  0.25126700000E+02 0.  1.
     -611    1    3    3    0    0  0.13208869146E-01 -0.92196329922E-02  0.10005974027E+02  0.10005991990E+02  0.10000000000E-01 0. -1.
      611    1    3    3    0    0 -0.19523273018E-01  0.53414851598E-02  0.17376939530E+01  0.17378406038E+01  0.10000000000E-01 0.  1.
</event>
<event>
 7   0  0.6206631E-02  0.9118800E+02  0.7818608E-02  0.1180000E+00
       11   -1    0    0    0    0  0.00000000000E+00  0.00000000000E+00  0.11999999989E+02  0.12000000000E+02  0.51109989000E-03 0. -1.
     -623   -1    0    0    0    0  0.00000000000E+00  0.00000000000E+00  0.42561509872E-11  0.25126700000E+02  0.25126700000E+02 0.  1.
      622    2    1    2    0    0  0.44394610259E-02 -0.12824910023E-01  0.11658446834E+02  0.11658969807E+02  0.10959099984E+00 0.  0.
       11    1    1    2    0    0  0.17691131787E-01 -0.59195065597E-03  0.34055675129E+00  0.34101684507E+00  0.51109989000E-03 0. -1.
     -623    1    1    2    0    0 -0.22130592813E-01  0.13416860679E-01  0.99640340029E-03  0.25126713348E+02  0.25126700000E+02 0.  1.
     -611    1    3    3    0    0  0.10564917226E-01  0.33456106016E-01  0.16253500298E+01  0.16257594066E+01  0.10000000000E-01 0.  1.
      611    1    3    3    0    0 -0.61254562000E-02 -0.46281016039E-01  0.10033096805E+02  0.10033210401E+02  0.10000000000E-01 0. -1.
</event>
<event>
 7   0  0.6206631E-02  0.9118800E+02  0.7818608E-02  0.1180000E+00
       11   -1    0    0    0    0  0.00000000000E+00  0.00000000000E+00  0.11999999989E+02  0.12000000000E+02  0.51109989000E-03 0.  1.
     -623   -1    0    0    0    0  0.00000000000E+00  0.00000000000E+00  0.42561509872E-11  0.25126700000E+02  0.25126700000E+02 0. -1.
      622    2    1    2    0    0 -0.11818044269E-02 -0.24068400755E-02  0.11979949794E+02  0.11980383861E+02  0.10194701928E+00 0.  0.
       11    1    1    2    0    0 -0.35183648781E-02 -0.12191617531E-02  0.19251971969E-01  0.19615424916E-01  0.51109989000E-03 0.  1.
     -623    1    1    2    0    0  0.47001693050E-02  0.36260018286E-02  0.79822273606E-03  0.25126700714E+02  0.25126700000E+02 0. -1.
     -611    1    3    3    0    0 -0.82299582103E-02 -0.50058439968E-01  0.52672017244E+01  0.52674555133E+01  0.10000000000E-01 0.  1.
      611    1    3    3    0    0  0.70481537834E-02  0.47651599892E-01  0.67127480701E+01  0.67129283479E+01  0.10000000000E-01 0. -1.
</event>
<event>
 7   0  0.6206631E-02  0.9118800E+02  0.7818608E-02  0.1180000E+00
       11   -1    0    0    0    0  0.00000000000E+00  0.00000000000E+00  0.11999999989E+02  0.12000000000E+02  0.51109989000E-03 0. -1.
     -623   -1    0    0    0    0  0.00000000000E+00  0.00000000000E+00  0.42561509872E-11  0.25126700000E+02  0.25126700000E+02 0. -1.
      622    2    1    2    0    0 -0.18065047551E-02 -0.11049915949E-01  0.11806544499E+02  0.11806892233E+02  0.89921146301E-01 0.  0.
       11    1    1    2    0    0  0.46152437649E-02  0.10533015890E-01  0.19276420148E+00  0.19310759564E+00  0.51109989000E-03 0. -1.
     -623    1    1    2    0    0 -0.28087390099E-02  0.51690005954E-03  0.69128832265E-03  0.25126700172E+02  0.25126700000E+02 0. -1.
     -611    1    3    3    0    0 -0.17692896691E-01  0.34861179699E-01  0.60139847385E+01  0.60141201165E+01  0.10000000000E-01 0.  1.
      611    1    3    3    0    0  0.15886391936E-01 -0.45911095648E-01  0.57925597608E+01  0.57927721161E+01  0.10000000000E-01 0. -1.
</event>
<event>
 7   0  0.6206631E-02  0.9118800E+02  0.7818608E-02  0.1180000E+00
       11   -1    0    0    0    0  0.00000000000E+00  0.00000000000E+00  0.11999999989E+02  0.12000000000E+02  0.51109989000E-03 0.  1.
     -623   -1    0    0    0    0  0.00000000000E+00  0.00000000000E+00  0.42561509872E-11  0.25126700000E+02  0.25126700000E+02 0. -1.
      622    2    1    2    0    0  0.38064794161E-01  0.56019314785E-01  0.63715526153E+01  0.63726831168E+01  0.99097354339E-01 0.  0.
       11    1    1    2    0    0 -0.22676340500E-01 -0.56459863146E-01  0.56269831662E+01  0.56273121245E+01  0.51109989000E-03 0.  1.
     -623    1    1    2    0    0 -0.15388453662E-01  0.44054836079E-03  0.14642076633E-02  0.25126704759E+02  0.25126700000E+02 0. -1.
     -611    1    3    3    0    0 -0.25385359901E-01  0.46545922657E-01  0.24592070197E+01  0.24597987936E+01  0.10000000000E-01 0.  1.
      611    1    3    3    0    0  0.63450154062E-01  0.94733921275E-02  0.39123455956E+01  0.39128843232E+01  0.10000000000E-01 0. -1.
</event>
<event>
 7   0  0.6206631E-02  0.9118800E+02  0.7818608E-02  0.1180000E+00
       11   -1    0    0    0    0  0.00000000000E+00  0.00000000000E+00  0.11999999989E+02  0.12000000000E+02  0.51109989000E-03 0. -1.
     -623   -1    0    0    0    0  0.00000000000E+00  0.00000000000E+00  0.42561509872E-11  0.25126700000E+02  0.25126700000E+02 0. -1.
      622    2    1    2    0    0  0.18902145681E-02 -0.11406166954E-03  0.11941403427E+02  0.11941719785E+02  0.86902420047E-01 0.  0.
       11    1    1    2    0    0 -0.12786442602E-02  0.13480448340E-02  0.58248308429E-01  0.58280175137E-01  0.51109989000E-03 0. -1.
     -623    1    1    2    0    0 -0.61157030782E-03 -0.12339831644E-02  0.34825396129E-03  0.25126700040E+02  0.25126700000E+02 0. -1.
     -611    1    3    3    0    0 -0.11030308084E-01 -0.18014769854E-01  0.94269709874E+00  0.94298675473E+00  0.10000000000E-01 0. -1.
      611    1    3    3    0    0  0.12920522652E-01  0.17900708185E-01  0.10998706328E+02  0.10998733030E+02  0.10000000000E-01 0. -1.
</event>
<event>
 7   0  0.6206631E-02  0.9118800E+02  0.7818608E-02  0.1180000E+00
       11   -1    0    0    0    0  0.00000000000E+00  0.00000000000E+00  0.11999999989E+02  0.12000000000E+02  0.51109989000E-03 0.  1.
     -623   -1    0    0    0    0  0.00000000000E+00  0.00000000000E+00  0.42561509872E-11  0.25126700000E+02  0.25126700000E+02 0.  1.
      622    2    1    2    0    0  0.16471587373E-01  0.51118762241E-02  0.11443898583E+02  0.11444653518E+02  0.13031468589E+00 0.  0.
       11    1    1    2    0    0  0.96772060738E-02  0.35331532521E-01  0.55409036929E+00  0.55530024678E+00  0.51109989000E-03 0.  1.
     -623    1    1    2    0    0 -0.26148793447E-01 -0.40443408745E-01  0.20110363875E-02  0.25126746235E+02  0.25126700000E+02 0.  1.
     -611    1    3    3    0    0  0.17286731699E-02 -0.40648698428E-01  0.96278198550E+01  0.96279110126E+01  0.10000000000E-01 0.  1.
      611    1    3    3    0    0  0.14742914203E-01  0.45760574653E-01  0.18160787284E+01  0.18167425056E+01  0.10000000000E-01 0. -1.
</event>
<event>
 7   0  0.6206631E-02  0.9118800E+02  0.7818608E-02  0.1180000E+00
       11   -1    0    0    0    0  0.00000000000E+00  0.00000000000E+00  0.11999999989E+02  0.12000000000E+02  0.51109989000E-03 0.  1.
     -623   -1    0    0    0    0  0.00000000000E+00  0.00000000000E+00  0.42561509872E-11  0.25126700000E+02  0.25126700000E+02 0.  1.
      622    2    1    2    0    0 -0.15307436603E-02 -0.77796235078E-03  0.11990180700E+02  0.11990609902E+02  0.10143794027E+00 0.  0.
       11    1    1    2    0    0  0.14033599821E-02 -0.95429566552E-04  0.92700475926E-02  0.93900762280E-02  0.51109989000E-03 0.  1.
     -623    1    1    2    0    0  0.12738367817E-03  0.87339191733E-03  0.54924129551E-03  0.25126700022E+02  0.25126700000E+02 0.  1.
     -611    1    3    3    0    0 -0.35729534880E-01  0.32138162669E-01  0.76655708001E+01  0.76657279598E+01  0.10000000000E-01 0.  1.
      611    1    3    3    0    0  0.34198791220E-01 -0.32916125020E-01  0.43246099001E+01  0.43248819425E+01  0.10000000000E-01 0. -1.
</event>
<event>
 7   0  0.6206631E-02  0.9118800E+02  0.7818608E-02  0.1180000E+00
       11   -1    0    0    0    0  0.00000000000E+00  0.00000000000E+00  0.11999999989E+02  0.12000000000E+02  0.51109989000E-03 0.  1.
     -623   -1    0    0    0    0  0.00000000000E+00  0.00000000000E+00  0.42561509872E-11  0.25126700000E+02  0.25126700000E+02 0. -1.
      622    2    1    2    0    0  0.23973454678E-01 -0.57402994499E-02  0.11272382052E+02  0.11272912653E+02  0.10655919156E+00 0.  0.
       11    1    1    2    0    0  0.66904392792E-02 -0.52012080095E-02  0.72701667952E+00  0.72706624737E+00  0.51109989000E-03 0.  1.
     -623    1    1    2    0    0 -0.30663893957E-01  0.10941507459E-01  0.60125732039E-03  0.25126721100E+02  0.25126700000E+02 0. -1.
     -611    1    3    3    0    0 -0.30096316050E-01 -0.34224192029E-01  0.55238041485E+01  0.55240012087E+01  0.10000000000E-01 0.  1.
      611    1    3    3    0    0  0.54069770728E-01  0.28483892579E-01  0.57485779038E+01  0.57489114438E+01  0.10000000000E-01 0. -1.
</event>
<event>
 7   0  0.6206631E-02  0.9118800E+02  0.7818608E-02  0.1180000E+00
       11   -1    0    0    0    0  0.00000000000E+00  0.00000000000E+00  0.11999999989E+02  0.12000000000E+02  0.51109989000E-03 0.  1.
     -623   -1    0    0    0    0  0.00000000000E+00  0.00000000000E+00  0.42561509872E-11  0.25126700000E+02  0.25126700000E+02 0. -1.
      622    2    1    2    0    0  0.31032650813E-01 -0.17297923989E-01  0.73188637905E+01  0.73196079304E+01  0.98136779631E-01 0.  0.
       11    1    1    2    0    0 -0.25669114222E-01  0.14527362428E-01  0.46802983662E+01  0.46803913304E+01  0.51109989000E-03 0.  1.
     -623    1    1    2    0    0 -0.53635365912E-02  0.27705615611E-02  0.83783238616E-03  0.25126700739E+02  0.25126700000E+02 0. -1.
     -611    1    3    3    0    0  0.28036224791E-01 -0.29654884923E-01  0.12210876408E+01  0.12218103243E+01  0.10000000000E-01 0. -1.
      611    1    3    3    0    0  0.29964260222E-02  0.12356960934E-01  0.60977761497E+01  0.60977976061E+01  0.10000000000E-01 0.  1.
</event>
<event>
 7   0  0.6206631E-02  0.9118800E+02  0.7818608E-02  0.1180000E+00
       11   -1    0    0    0    0  0.00000000000E+00  0.00000000000E+00  0.11999999989E+02  0.12000000000E+02  0.51109989000E-03 0.  1.
     -623   -1    0    0    0    0  0.00000000000E+00  0.00000000000E+00  0.42561509872E-11  0.25126700000E+02  0.25126700000E+02 0.  1.
      622    2    1    2    0    0  0.20032297235E-02  0.42034398558E-02  0.11988885673E+02  0.11989486864E+02  0.11997449637E+00 0.  0.
       11    1    1    2    0    0  0.11235830286E-03  0.50303945349E-03  0.10487508563E-01  0.10512598733E-01  0.51109989000E-03 0.  1.
     -623    1    1    2    0    0 -0.21155880264E-02 -0.47064793092E-02  0.62680711503E-03  0.25126700538E+02  0.25126700000E+02 0.  1.
     -611    1    3    3    0    0  0.49022003513E-01  0.22711170365E-01  0.89175988799E+01  0.89177681477E+01  0.10000000000E-01 0.  1.
      611    1    3    3    0    0 -0.47018773790E-01 -0.18507730510E-01  0.30712867936E+01  0.30717187159E+01  0.10000000000E-01 0. -1.
</event>
<event>
 7   0  0.6206631E-02  0.9118800E+02  0.7818608E-02  0.1180000E+00
       11   -1    0    0    0    0  0.00000000000E+00  0.00000000000E+00  0.11999999989E+02  0.12000000000E+02  0.51109989000E-03 0. -1.
     -623   -1    0    0    0    0  0.00000000000E+00  0.00000000000E+00  0.42561509872E-11  0.25126700000E+02  0.25126700000E+02 0.  1.
      622    2    1    2    0    0 -0.23624385349E-02 -0.83416156568E-03  0.11982485742E+02  0.11982645759E+02  0.61875352749E-01 0.  0.
       11    1    1    2    0    0  0.58890303421E-03  0.19735037583E-02  0.17223931338E-01  0.17354151023E-01  0.51109989000E-03 0. -1.
     -623    1    1    2    0    0  0.17735355007E-02 -0.11393421926E-02  0.29031622920E-03  0.25126700090E+02  0.25126700000E+02 0.  1.
     -611    1    3    3    0    0 -0.64059694749E-02 -0.32286657196E-02  0.11584844377E+02  0.11584850914E+02  0.10000000000E-01 0. -1.
      611    1    3    3    0    0  0.40435309399E-02  0.23945041540E-02  0.39764136442E+00  0.39779484473E+00  0.10000000000E-01 0. -1.
</event>
<event>
 7   0  0.6206631E-02  0.9118800E+02  0.7818608E-02  0.1180000E+00
       11   -1    0    0    0    0  0.00000000000E+00  0.00000000000E+00  0.11999999989E+02  0.12000000000E+02  0.51109989000E-03 0. -1.
     -623   -1    0    0    0    0  0.00000000000E+00  0.00000000000E+00  0.42561509872E-11  0.25126700000E+02  0.25126700000E+02 0.  1.
      622    2    1    2    0    0  0.59010348489E-04 -0.35734295635E-01  0.11609102499E+02  0.11609527056E+02  0.92631922154E-01 0.  0.
       11    1    1    2    0    0 -0.22596787904E-01  0.14906593756E-01  0.38951427892E+00  0.39045416641E+00  0.51109989000E-03 0. -1.
     -623    1    1    2    0    0  0.22537777556E-01  0.20827701879E-01  0.13832109323E-02  0.25126718778E+02  0.25126700000E+02 0.  1.
     -611    1    3    3    0    0 -0.24999090641E-01 -0.87008064515E-02  0.97065180236E+01  0.97065592669E+01  0.10000000000E-01 0. -1.
      611    1    3    3    0    0  0.25058100990E-01 -0.27033489184E-01  0.19025844756E+01  0.19029677887E+01  0.10000000000E-01 0.  1.
</event>
<event>
 7   0  0.6206631E-02  0.9118800E+02  0.7818608E-02  0.1180000E+00
       11   -1    0    0    0    0  0.00000000000E+00  0.00000000000E+00  0.11999999989E+02  0.12000000000E+02  0.51109989000E-03 0. -1.
     -623   -1    0    0    0    0  0.00000000000E+00  0.00000000000E+00  0.42561509872E-11  0.25126700000E+02  0.25126700000E+02 0. -1.
      622    2    1    2    0    0 -0.15698412299E-01  0.31799067091E-01  0.11138228646E+02  0.11138956302E+02  0.12228043992E+00 0.  0.
       11    1    1    2    0    0  0.19638500594E-01 -0.22991775077E-01  0.86051057609E+00  0.86104181386E+00  0.51109989000E-03 0. -1.
     -623    1    1    2    0    0 -0.39400882948E-02 -0.88072920133E-02  0.12607669623E-02  0.25126701884E+02  0.25126700000E+02 0. -1.
     -611    1    3    3    0    0 -0.64572872552E-01  0.24958838701E-01  0.45770590630E+01  0.45775935016E+01  0.10000000000E-01 0. -1.
      611    1    3    3    0    0  0.48874460252E-01  0.68402283899E-02  0.65611695831E+01  0.65613628005E+01  0.10000000000E-01 0.  1.
</event>
<event>
 7   0  0.6206631E-02  0.9118800E+02  0.7818608E-02  0.1180000E+00
       11   -1    0    0    0    0  0.00000000000E+00  0.00000000000E+00  0.11999999989E+02  0.12000000000E+02  0.51109989000E-03 0. -1.
     -623   -1    0    0    0    0  0.00000000000E+00  0.00000000000E+00  0.42561509872E-11  0.25126700000E+02  0.25126700000E+02 0. -1.
      622    2    1    2    0    0  0.35313950421E-01 -0.96972966172E-02  0.53416587805E+01  0.53427059410E+01  0.99232712609E-01 0.  0.
       11    1    1    2    0    0 -0.36787695953E-01  0.25585181164E-03  0.66571905473E+01  0.66572922156E+01  0.51109989000E-03 0. -1.
     -623    1    1    2    0    0  0.14737455322E-02  0.94414448056E-02  0.11506612718E-02  0.25126701843E+02  0.25126700000E+02 0. -1.
     -611    1    3    3    0    0 -0.31519026965E-01  0.64642372734E-02  0.12355601394E+01  0.12360194552E+01  0.10000000000E-01 0.  1.
      611    1    3    3    0    0  0.66832977385E-01 -0.16161533891E-01  0.41060986411E+01  0.41066864858E+01  0.10000000000E-01 0. -1.
</event>
<event>
 7   0  0.6206631E-02  0.9118800E+02  0.7818608E-02  0.1180000E+00
       11   -1    0    0    0    0  0.00000000000E+00  0.00000000000E+00  0.11999999989E+02  0.12000000000E+02  0.51109989000E-03 0. -1.
     -623   -1    0    0    0    0  0.00000000000E+00  0.00000000000E+00  0.42561509872E-11  0.25126700000E+02  0.25126700000E+02 0.  1.
      622    2    1    2    0    0  0.39998788920E-02  0.21849767136E-02  0.11928613162E+02  0.11929170116E+02  0.11518211506E+00 0.  0.
       11    1    1    2    0    0 -0.50888107408E-02 -0.15238124894E-02  0.70628514202E-01  0.70829840045E-01  0.51109989000E-03 0. -1.
     -623    1    1    2    0    0  0.10889318488E-02 -0.66116422420E-03  0.75831290800E-03  0.25126700044E+02  0.25126700000E+02 0.  1.
     -611    1    3    3    0    0 -0.49557743195E-01  0.24517824930E-01  0.61775552736E+01  0.61778107977E+01  0.10000000000E-01 0. -1.
      611    1    3    3    0    0  0.53557622087E-01 -0.22332848217E-01  0.57510578884E+01  0.57513593186E+01  0.10000000000E-01 0.  1.
</event>
<event>
 7   0  0.6206631E-02  0.9118800E+02  0.7818608E-02  0.1180000E+00
       11   -1    0    0    0    0  0.00000000000E+00  0.00000000000E+00  0.11999999989E+02  0.12000000000E+02  0.51109989000E-03 0. -1.
     -623   -1    0    0    0    0  0.00000000000E+00  0.00000000000E+00  0.42561509872E-11  0.25126700000E+02  0.25126700000E+02 0. -1.
      622    2    1    2    0    0 -0.27633186278E-02 -0.44290065597E-03  0.11915100415E+02  0.11915426086E+02  0.88051556111E-01 0.  0.
       11    1    1    2    0    0  0.11707632787E-02  0.11130671805E-02  0.84556878562E-01  0.84573852581E-01  0.51109989000E-03 0. -1.
     -623    1    1    2    0    0  0.15925553492E-02 -0.67016652454E-03  0.34269576623E-03  0.25126700062E+02  0.25126700000E+02 0. -1.
     -611    1    3    3    0    0 -0.13740174040E-01 -0.32114012230E-01  0.25340734317E+01  0.25343338887E+01  0.10000000000E-01 0.  1.
      611    1    3    3    0    0  0.10976855412E-01  0.31671111574E-01  0.93810269830E+01  0.93810921969E+01  0.10000000000E-01 0. -1.
</event>
<event>
 7   0  0.6206631E-02  0.9118800E+02  0.7818608E-02  0.1180000E+00
       11   -1    0    0    0    0  0.00000000000E+00  0.00000000000E+00  0.11999999989E+02  0.12000000000E+02  0.51109989000E-03 0.  1.
     -623   -1    0    0    0    0  0.00000000000E+00  0.00000000000E+00  0.42561509872E-11  0.25126700000E+02  0.25126700000E+02 0.  1.
      622    2    1    2    0    0  0.51740371888E-02  0.99252481649E-02  0.76847439208E+01  0.76849911363E+01  0.60616462994E-01 0.  0.
       11    1    1    2    0    0 -0.54701778396E-02  0.42429798726E-01  0.43147421990E+01  0.43149543121E+01  0.51109989000E-03 0.  1.
     -623    1    1    2    0    0  0.29614065075E-03 -0.52355046891E-01  0.51386927546E-03  0.25126754552E+02  0.25126700000E+02 0.  1.
     -611    1    3    3    0    0  0.10525615534E-01  0.15057523848E-01  0.73283555571E+01  0.73283854080E+01  0.10000000000E-01 0.  1.
      611    1    3    3    0    0 -0.53515783453E-02 -0.51322756835E-02  0.35638836372E+00  0.35660572828E+00  0.10000000000E-01 0. -1.
</event>
<event>
 7   0  0.6206631E-02  0.9118800E+02  0.7818608E-02  0.1180000E+00
       11   -1    0    0    0    0  0.00000000000E+00  0.00000000000E+00  0.11999999989E+02  0.12000000000E+02  0.51109989000E-03 0.  1.
     -623   -1    0    0    0    0  0.00000000000E+00  0.00000000000E+00  0.42561509872E-11  0.25126700000E+02  0.25126700000E+02 0. -1.
      622    2    1    2    0    0 -0.42216164722E-02  0.12320739851E-01  0.11667014212E+02  0.11667452897E+02  0.10033375918E+00 0.  0.
       11    1    1    2    0    0  0.13553537728E-01 -0.94871940984E-02  0.33213301646E+00  0.33254519555E+00  0.51109989000E-03 0.  1.
     -623    1    1    2    0    0 -0.93319212554E-02 -0.28335457530E-02  0.85276058518E-03  0.25126701907E+02  0.25126700000E+02 0. -1.
     -611    1    3    3    0    0 -0.10660997169E-01  0.45914449802E-01  0.96746514270E+01  0.96747714199E+01  0.10000000000E-01 0.  1.
      611    1    3    3    0    0  0.64393806966E-02 -0.33593709951E-01  0.19923627851E+01  0.19926814774E+01  0.10000000000E-01 0. -1.
</event>
<event>
 7   0  0.6206631E-02  0.9118800E+02  0.7818608E-02  0.1180000E+00
       11   -1    0    0    0    0  0.00000000000E+00  0.00000000000E+00  0.11999999989E+02  0.12000000000E+02  0.51109989000E-03 0.  1.
     -623   -1    0    0    0    0  0.00000000000E+00  0.00000000000E+00  0.42561509872E-11  0.25126700000E+02  0.25126700000E+02 0.  1.
      622    2    1    2    0    0 -0.29994817276E-02  0.10990958348E-01  0.11984819057E+02  0.11985125142E+02  0.84894362658E-01 0.  0.
       11    1    1    2    0    0  0.11117319926E-01  0.93380845664E-02  0.31362639108E-02  0.14862435876E-01  0.51109989000E-03 0.  1.
     -623    1    1    2    0    0 -0.81178381988E-02 -0.20329042914E-01  0.12044668432E-01  0.25126712422E+02  0.25126700000E+02 0.  1.
     -611    1    3    3    0    0 -0.29229728292E-01  0.19639115384E-02  0.18194108468E+01  0.18196741641E+01  0.10000000000E-01 0.  1.
      611    1    3    3    0    0  0.26230246564E-01  0.90270468094E-02  0.10165408210E+02  0.10165450978E+02  0.10000000000E-01 0.  1.
</event>
<event>
 7   0  0.6206631E-02  0.9118800E+02  0.7818608E-02  0.1180000E+00
       11   -1    0    0    0    0  0.00000000000E+00  0.00000000000E+00  0.11999999989E+02  0.12000000000E+02  0.51109989000E-03 0.  1.
     -623   -1    0    0    0    0  0.00000000000E+00  0.00000000000E+00  0.42561509872E-11  0.25126700000E+02  0.25126700000E+02 0.  1.
      622    2    1    2    0    0  0.15903230697E-01  0.22712240463E-01  0.32479424721E+01  0.32481825788E+01  0.28124805285E-01 0.  0.
       11    1    1    2    0    0 -0.11578038835E-01 -0.94168054114E-02  0.87518007908E+01  0.87518135304E+01  0.51109989000E-03 0.  1.
     -623    1    1    2    0    0 -0.43251918604E-02 -0.13295435050E-01  0.25672652118E-03  0.25126703891E+02  0.25126700000E+02 0.  1.
     -611    1    3    3    0    0  0.12082803406E-01  0.15666862588E-01  0.26968798141E+01  0.26969709261E+01  0.10000000000E-01 0.  1.
      611    1    3    3    0    0  0.38204272903E-02  0.70453778750E-02  0.55106265802E+00  0.55121165271E+00  0.10000000000E-01 0.  1.
</event>
<event>
 7   0  0.6206631E-02  0.9118800E+02  0.7818608E-02  0.1180000E+00
       11   -1    0    0    0    0  0.00000000000E+00  0.00000000000E+00  0.11999999989E+02  0.12000000000E+02  0.51109989000E-03 0. -1.
     -623   -1    0    0    0    0  0.00000000000E+00  0.00000000000E+00  0.42561509872E-11  0.25126700000E+02  0.25126700000E+02 0.  1.
      622    2    1    2    0    0  0.79097287283E-03  0.29322970741E-02  0.11976500252E+02  0.11976817202E+02  0.87079187143E-01 0.  0.
       11    1    1    2    0    0  0.46010079262E-04 -0.17427355698E-02  0.23111459557E-01  0.23182752860E-01  0.51109989000E-03 0. -1.
     -623    1    1    2    0    0 -0.83698295209E-03 -0.11895615043E-02  0.38827772487E-03  0.25126700045E+02  0.25126700000E+02 0.  1.
     -611    1    3    3    0    0  0.26572454579E-01 -0.31642926788E-01  0.64004798326E+01  0.64006210212E+01  0.10000000000E-01 0. -1.
      611    1    3    3    0    0 -0.25781481706E-01  0.34575223862E-01  0.55760204193E+01  0.55761961808E+01  0.10000000000E-01 0.  1.
</event>
<event>
 7   0  0.6206631E-02  0.9118800E+02  0.7818608E-02  0.1180000E+00
       11   -1    0    0    0    0  0.00000000000E+00  0.00000000000E+00  0.11999999989E+02  0.12000000000E+02  0.51109989000E-03 0.  1.
     -623   -1    0    0    0    0  0.00000000000E+00  0.00000000000E+00  0.42561509872E-11  0.25126700000E+02  0.25126700000E+02 0. -1.
      622    2    1    2    0    0 -0.42659196895E-02  0.15553145115E-01  0.11873788775E+02  0.11874188698E+02  0.96110677869E-01 0.  0.
       11    1    1    2    0    0  0.50624062058E-02 -0.15641025031E-01  0.12473146661E+00  0.12581124594E+00  0.51109989000E-03 0.  1.
     -623    1    1    2    0    0 -0.79648651631E-03  0.87879916412E-04  0.14797477382E-02  0.25126700056E+02  0.25126700000E+02 0. -1.
     -611    1    3    3    0    0 -0.15485088094E-01  0.10942701953E-01  0.11548836921E+02  0.11548856816E+02  0.10000000000E-01 0.  1.
      611    1    3    3    0    0  0.11219168405E-01  0.46104431613E-02  0.32495185421E+00  0.32533188205E+00  0.10000000000E-01 0. -1.
</event>
<event>
 7   0  0.6206631E-02  0.9118800E+02  0.7818608E-02  0.1180000E+00
       11   -1    0    0    0    0  0.00000000000E+00  0.00000000000E+00  0.11999999989E+02  0.12000000000E+02  0.51109989000E-03 0.  1.
     -623   -1    0    0    0    0  0.00000000000E+00  0.00000000000E+00  0.42561509872E-11  0.25126700000E+02  0.25126700000E+02 0. -1.
      622    2    1    2    0    0  0.99481193884E-04 -0.74480860284E-02  0.11831382067E+02  0.11831587795E+02  0.69373238857E-01 0.  0.
       11    1    1    2    0    0  0.11890489463E-02  0.19361729229E-02  0.16839546249E+00  0.16841156615E+00  0.51109989000E-03 0.  1.
     -623    1    1    2    0    0 -0.12885301401E-02  0.55119131055E-02  0.22245913947E-03  0.25126700639E+02  0.25126700000E+02 0. -1.
     -611    1    3    3    0    0 -0.26097623005E-01 -0.86645911537E-03  0.92972509968E+01  0.92972930433E+01  0.10000000000E-01 0.  1.
      611    1    3    3    0    0  0.26197104199E-01 -0.65816269130E-02  0.25341310707E+01  0.25342947519E+01  0.10000000000E-01 0. -1.
</event>
<event>
 7   0  0.6206631E-02  0.9118800E+02  0.7818608E-02  0.1180000E+00
       11   -1    0    0    0    0  0.00000000000E+00  0.00000000000E+00  0.11999999989E+02  0.12000000000E+02  0.51109989000E-03 0.  1.
     -623   -1    0    0    0    0  0.00000000000E+00  0.00000000000E+00  0.42561509872E-11  0.25126700000E+02  0.25126700000E+02 0. -1.
      622    2    1    2    0    0 -0.53909740896E-02 -0.17662240714E-01  0.11793278831E+02  0.11793815393E+02  0.11097255294E+00 0.  0.
       11    1    1    2    0    0  0.73353686662E-02  0.88770654658E-02  0.20586051285E+00  0.20618298159E+00  0.51109989000E-03 0.  1.
     -623    1    1    2    0    0 -0.19443945766E-02  0.87851752486E-02  0.86064506118E-03  0.25126701626E+02  0.25126700000E+02 0. -1.
     -611    1    3    3    0    0 -0.49672492468E-01 -0.36859577741E-01  0.71732581942E+01  0.71735318432E+01  0.10000000000E-01 0.  1.
      611    1    3    3    0    0  0.44281518378E-01  0.19197337026E-01  0.46200206370E+01  0.46202835494E+01  0.10000000000E-01 0. -1.
</event>
<event>
 7   0  0.6206631E-02  0.9118800E+02  0.7818608E-02  0.1180000E+00
       11   -1    0    0    0    0  0.00000000000E+00  0.00000000000E+00  0.11999999989E+02  0.12000000000E+02  0.51109989000E-03 0.  1.
     -623   -1    0    0    0    0  0.00000000000E+00  0.00000000000E+00  0.42561509872E-11  0.25126700000E+02  0.25126700000E+02 0. -1.
      622    2    1    2    0    0 -0.22938006602E-01 -0.31859645549E-02  0.10864743454E+02  0.10865691498E+02  0.14165141705E+00 0.  0.
       11    1    1    2    0    0  0.22808460914E-01  0.91280690462E-02  0.11340415807E+01  0.11343077693E+01  0.51109989000E-03 0.  1.
     -623    1    1    2    0    0  0.12954568786E-03 -0.59421044912E-02  0.12149548752E-02  0.25126700732E+02  0.25126700000E+02 0. -1.
     -611    1    3    3    0    0 -0.61988590163E-01  0.38549079775E-01  0.81229315728E+01  0.81232657198E+01  0.10000000000E-01 0.  1.
      611    1    3    3    0    0  0.39050583561E-01 -0.41735044330E-01  0.27418118807E+01  0.27424257786E+01  0.10000000000E-01 0. -1.
</event>
<event>
 7   0  0.6206631E-02  0.9118800E+02  0.7818608E-02  0.1180000E+00
       11   -1    0    0    0    0  0.00000000000E+00  0.00000000000E+00  0.11999999989E+02  0.12000000000E+02  0.51109989000E-03 0. -1.
     -623   -1    0    0    0    0  0.00000000000E+00  0.00000000000E+00  0.42561509872E-11  0.25126700000E+02  0.25126700000E+02 0.  1.
      622    2    1    2    0    0 -0.71594588250E-02 -0.10681454906E-02  0.11620200967E+02  0.11620410340E+02  0.69379841917E-01 0.  0.
       11    1    1    2    0    0  0.78142287225E-02  0.19472644349E-02  0.37950385424E+00  0.37958963450E+00  0.51109989000E-03 0. -1.
     -623    1    1    2    0    0 -0.65476989750E-03 -0.87911894431E-03  0.29516822211E-03  0.25126700026E+02  0.25126700000E+02 0.  1.
     -611    1    3    3    0    0  0.26341980001E-01 -0.12652853165E-01  0.67186313288E+01  0.67187023246E+01  0.10000000000E-01 0. -1.
      611    1    3    3    0    0 -0.33501438826E-01  0.11584707675E-01  0.49015696379E+01  0.49017080153E+01  0.10000000000E-01 0.  1.
</event>
<event>
 7   0  0.6206631E-02  0.9118800E+02  0.7818608E-02  0.1180000E+00
       11   -1    0    0    0    0  0.00000000000E+00  0.00000000000E+00  0.11999999989E+02  0.12000000000E+02  0.51109989000E-03 0.  1.
     -623   -1    0    0    0    0  0.00000000000E+00  0.00000000000E+00  0.42561509872E-11  0.25126700000E+02  0.25126700000E+02 0.  1.
      622    2    1    2    0    0  0.28779621365E-02  0.12096192590E-01  0.11988210946E+02  0.11989217482E+02  0.15485332352E+00 0.  0.
       11    1    1    2    0    0 -0.81866594160E-02 -0.23387184067E-02  0.65913533840E-02  0.10779524977E-01  0.51109989000E-03 0.  1.
     -623    1    1    2    0    0  0.53086972795E-02 -0.97574741828E-02  0.51976899862E-02  0.25126702993E+02  0.25126700000E+02 0.  1.
     -611    1    3    3    0    0 -0.19081147107E-01  0.32093020562E-01  0.77545321496E+00  0.77641595858E+00  0.10000000000E-01 0.  1.
      611    1    3    3    0    0  0.21959109243E-01 -0.19996827972E-01  0.11212757731E+02  0.11212801523E+02  0.10000000000E-01 0.  1.
</event>
<event>
 7   0  0.6206631E-02  0.9118800E+02  0.7818608E-02  0.1180000E+00
       11   -1    0    0    0    0  0.00000000000E+00  0.00000000000E+00  0.11999999989E+02  0.12000000000E+02  0.51109989000E-03 0.  1.
     -623   -1    0    0    0    0  0.00000000000E+00  0.00000000000E+00  0.42561509872E-11  0.25126700000E+02  0.25126700000E+02 0.  1.
      622    2    1    2    0    0 -0.11428057663E-02  0.70281478954E-02  0.11882497168E+02  0.11882916577E+02  0.99582770709E-01 0.  0.
       11    1    1    2    0    0  0.39124243206E-02 -0.53278063141E-02  0.11689535183E+00  0.11708320583E+00  0.51109989000E-03 0.  1.
     -623    1    1    2    0    0 -0.27696185543E-02 -0.17003415814E-02  0.60746966249E-03  0.25126700218E+02  0.25126700000E+02 0.  1.
     -611    1    3    3    0    0 -0.19888538714E-01  0.10959457096E-01  0.11287419437E+02  0.11287446709E+02  0.10000000000E-01 0.  1.
      611    1    3    3    0    0  0.18745732948E-01 -0.39313092006E-02  0.59507773031E+00  0.59546986726E+00  0.10000000000E-01 0. -1.
</event>
<event>
 7   0  0.6206631E-02  0.9118800E+02  0.7818608E-02  0.1180000E+00
       11   -1    0    0    0    0  0.00000000000E+00  0.00000000000E+00  0.11999999989E+02  0.12000000000E+02  0.51109989000E-03 0.  1.
     -623   -1    0    0    0    0  0.00000000000E+00  0.00000000000E+00  0.42561509872E-11  0.25126700000E+02  0.25126700000E+02 0.  1.
      622    2    1    2    0    0  0.57489214242E-02  0.24773873100E-02  0.11981940250E+02  0.11982364060E+02  0.10058388775E+00 0.  0.
       11    1    1    2    0    0 -0.50710381042E-02  0.16087556789E-02  0.16806204315E-01  0.17635567723E-01  0.51109989000E-03 0.  1.
     -623    1    1    2    0    0 -0.67788332005E-03 -0.40861429889E-02  0.12535349466E-02  0.25126700373E+02  0.25126700000E+02 0.  1.
     -611    1    3    3    0    0  0.52239226436E-01  0.15357294805E-02  0.62634577317E+01  0.62636837445E+01  0.10000000000E-01 0. -1.
      611    1    3    3    0    0 -0.46490305012E-01  0.94165782947E-03  0.57184825182E+01  0.57186803151E+01  0.10000000000E-01 0.  1.
</event>
<event>
 7   0  0.6206631E-02  0.9118800E+02  0.7818608E-02  0.1180000E+00
       11   -1    0    0    0    0  0.00000000000E+00  0.00000000000E+00  0.11999999989E+02  0.12000000000E+02  0.51109989000E-03 0. -1.
     -623   -1    0    0    0    0  0.00000000000E+00  0.00000000000E+00  0.42561509872E-11  0.25126700000E+02  0.25126700000E+02 0. -1.
      622    2    1    2    0    0  0.32411756661E-02  0.16406446438E-02  0.11605210712E+02  0.11605517427E+02  0.84296364381E-01 0.  0.
       11    1    1    2    0    0 -0.31654341387E-02 -0.10373366951E-02  0.39446816859E+00  0.39448256400E+00  0.51109989000E-03 0. -1.
     -623    1    1    2    0    0 -0.75741527396E-04 -0.60330794871E-03  0.32110873812E-03  0.25126700009E+02  0.25126700000E+02 0. -1.
     -611    1    3    3    0    0  0.17066639323E-01  0.37377175154E-01  0.45847723247E+01  0.45849673491E+01  0.10000000000E-01 0.  1.
      611    1    3    3    0    0 -0.13825463657E-01 -0.35736530511E-01  0.70204383871E+01  0.70205500775E+01  0.10000000000E-01 0. -1.
</event>
<event>
 7   0  0.6206631E-02  0.9118800E+02  0.7818608E-02  0.1180000E+00
       11   -1    0    0    0    0  0.00000000000E+00  0.00000000000E+00  0.11999999989E+02  0.12000000000E+02  0.51109989000E-03 0. -1.
     -623   -1    0    0    0    0  0.00000000000E+00  0.00000000000E+00  0.42561509872E-11  0.25126700000E+02  0.25126700000E+02 0. -1.
      622    2    1    2    0    0 -0.15766656659E-02 -0.90085511322E-02  0.95583800341E+01  0.95590162514E+01  0.10990531699E+00 0.  0.
       11    1    1    2    0    0  0.34975661737E-02  0.64828492714E-02  0.24409723719E+01  0.24409835399E+01  0.51109989000E-03 0. -1.
     -623    1    1    2    0    0 -0.19209005078E-02  0.25257018608E-02  0.64758311482E-03  0.25126700209E+02  0.25126700000E+02 0. -1.
     -611    1    3    3    0    0  0.15315621970E-01  0.15329597921E-01  0.48875846988E+00  0.48934078793E+00  0.10000000000E-01 0. -1.
      611    1    3    3    0    0 -0.16892287635E-01 -0.24338149054E-01  0.90696215642E+01  0.90696754635E+01  0.10000000000E-01 0.  1.
</event>
<event>
 7   0  0.6206631E-02  0.9118800E+02  0.7818608E-02  0.1180000E+00
       11   -1    0    0    0    0  0.00000000000E+00  0.00000000000E+00  0.11999999989E+02  0.12000000000E+02  0.51109989000E-03 0.  1.
     -623   -1    0    0    0    0  0.00000000000E+00  0.00000000000E+00  0.42561509872E-11  0.25126700000E+02  0.25126700000E+02 0.  1.
      622    2    1    2    0    0 -0.70827417086E-02 -0.27336327735E-01  0.99209849875E+01  0.99216259137E+01  0.10917971338E+00 0.  0.
       11    1    1    2    0    0  0.24382558445E-01  0.17973842110E-01  0.20781455543E+01  0.20783663715E+01  0.51109989000E-03 0.  1.
     -623    1    1    2    0    0 -0.17299816736E-01  0.93624856251E-02  0.86944738090E-03  0.25126707715E+02  0.25126700000E+02 0.  1.
     -611    1    3    3    0    0  0.46150454158E-01  0.40970546830E-02  0.53858175517E+01  0.53860261186E+01  0.10000000000E-01 0. -1.
      611    1    3    3    0    0 -0.53233195867E-01 -0.31433382418E-01  0.45351674357E+01  0.45355997950E+01  0.10000000000E-01 0.  1.
</event>
<event>
 7   0  0.6206631E-02  0.9118800E+02  0.7818608E-02  0.1180000E+00
       11   -1    0    0    0    0  0.00000000000E+00  0.00000000000E+00  0.11999999989E+02  0.12000000000E+02  0.51109989000E-03 0. -1.
     -623   -1    0    0    0    0  0.00000000000E+00  0.00000000000E+00  0.42561509872E-11  0.25126700000E+02  0.25126700000E+02 0.  1.
      622    2    1    2    0    0  0.59563465589E-01 -0.24595962035E-01  0.10724502706E+02  0.10725459283E+02  0.12792874441E+00 0.  0.
       11    1    1    2    0    0 -0.64365255761E-01  0.12420863870E-01  0.12728501762E+01  0.12745371694E+01  0.51109989000E-03 0. -1.
     -623    1    1    2    0    0  0.48017901722E-02  0.12175098165E-01  0.26471069130E-02  0.25126703548E+02  0.25126700000E+02 0.  1.
     -611    1    3    3    0    0  0.67329686601E-01 -0.50297888736E-01  0.10040570542E+02  0.10040927246E+02  0.10000000000E-01 0. -1.
      611    1    3    3    0    0 -0.77662210122E-02  0.25701926701E-01  0.68393216440E+00  0.68453203630E+00  0.10000000000E-01 0.  1.
</event>
<event>
 7   0  0.6206631E-02  0.9118800E+02  0.7818608E-02  0.1180000E+00
       11   -1    0    0    0    0  0.00000000000E+00  0.00000000000E+00  0.11999999989E+02  0.12000000000E+02  0.51109989000E-03 0.  1.
     -623   -1    0    0    0    0  0.00000000000E+00  0.00000000000E+00  0.42561509872E-11  0.25126700000E+02  0.25126700000E+02 0. -1.
      622    2    1    2    0    0 -0.43136638218E-01 -0.28316309113E-01  0.57070050018E+01  0.57081312541E+01  0.10096405309E+00 0.  0.
       11    1    1    2    0    0  0.40332218828E-01  0.32772664494E-01  0.62916535129E+01  0.62918681584E+01  0.51109989000E-03 0.  1.
     -623    1    1    2    0    0  0.28044193894E-02 -0.44563553810E-02  0.13414743915E-02  0.25126700587E+02  0.25126700000E+02 0. -1.
     -611    1    3    3    0    0  0.79981593719E-02 -0.34854555873E-01  0.81606028189E+00  0.81690464211E+00  0.10000000000E-01 0. -1.
      611    1    3    3    0    0 -0.51134797590E-01  0.65382467604E-02  0.48909447199E+01  0.48912266120E+01  0.10000000000E-01 0. -1.
</event>
<event>
 7   0  0.6206631E-02  0.9118800E+02  0.7818608E-02  0.1180000E+00
       11   -1    0    0    0    0  0.00000000000E+00  0.00000000000E+00  0.11999999989E+02  0.12000000000E+02  0.51109989000E-03 0.  1.
     -623   -1    0    0    0    0  0.00000000000E+00  0.00000000000E+00  0.42561509872E-11  0.25126700000E+02  0.25126700000E+02 0. -1.
      622    2    1    2    0    0  0.27293071785E-01  0.22199523716E-01  0.11364370164E+02  0.11364938231E+02  0.10804647611E+00 0.  0.
       11    1    1    2    0    0 -0.27248819134E-01 -0.20861928303E-01  0.63413355795E+00  0.63506168892E+00  0.51109989000E-03 0.  1.
     -623    1    1    2    0    0 -0.44252650436E-04 -0.13375954133E-02  0.14962673555E-02  0.25126700080E+02  0.25126700000E+02 0. -1.
     -611    1    3    3    0    0  0.24474800886E-01  0.12233425258E-01  0.11169129214E+02  0.11169167206E+02  0.10000000000E-01 0.  1.
      611    1    3    3    0    0  0.28182708986E-02  0.99660984588E-02  0.19524094950E+00  0.19577102475E+00  0.10000000000E-01 0.  1.
</event>
<event>
 7   0  0.6206631E-02  0.9118800E+02  0.7818608E-02  0.1180000E+00
       11   -1    0    0    0    0  0.00000000000E+00  0.00000000000E+00  0.11999999989E+02  0.12000000000E+02  0.51109989000E-03 0. -1.
     -623   -1    0    0    0    0  0.00000000000E+00  0.00000000000E+00  0.42561509872E-11  0.25126700000E+02  0.25126700000E+02 0.  1.
      622    2    1    2    0    0 -0.44215705717E-01  0.25636398977E-01  0.73580975403E+01  0.73589023998E+01  0.96087789768E-01 0.  0.
       11    1    1    2    0    0  0.16765879957E-01 -0.74317504449E-01  0.46404100222E+01  0.46410354040E+01  0.51109989000E-03 0. -1.
     -623    1    1    2    0    0  0.27449825760E-01  0.48681105472E-01  0.14924265595E-02  0.25126762196E+02  0.25126700000E+02 0.  1.
     -611    1    3    3    0    0 -0.23075263790E-01 -0.10308745389E-01  0.61234978229E+01  0.61235581425E+01  0.10000000000E-01 0.  1.
      611    1    3    3    0    0 -0.21140441927E-01  0.35945144366E-01  0.12345997174E+01  0.12353442573E+01  0.10000000000E-01 0. -1.
</event>
<event>
 7   0  0.6206631E-02  0.9118800E+02  0.7818608E-02  0.1180000E+00
       11   -1    0    0    0    0  0.00000000000E+00  0.00000000000E+00  0.11999999989E+02  0.12000000000E+02  0.51109989000E-03 0.  1.
     -623   -1    0    0    0    0  0.00000000000E+00  0.00000000000E+00  0.42561509872E-11  0.25126700000E+02  0.25126700000E+02 0.  1.
      622    2    1    2    0    0 -0.34754276008E-01 -0.80075893625E-01  0.11258005697E+02  0.11258961574E+02  0.11791279926E+00 0.  0.
       11    1    1    2    0    0  0.24272871838E-01  0.53389964210E-01  0.73869714017E+00  0.74102185305E+00  0.51109989000E-03 0.  1.
     -623    1    1    2    0    0  0.10481404171E-01  0.26685929416E-01  0.32971517603E-02  0.25126716573E+02  0.25126700000E+02 0.  1.
     -611    1    3    3    0    0  0.30481883775E-01 -0.23005088846E-01  0.67272554894E+01  0.67273713142E+01  0.10000000000E-01 0. -1.
      611    1    3    3    0    0 -0.65236159783E-01 -0.57070804780E-01  0.45307502078E+01  0.45315902594E+01  0.10000000000E-01 0.  1.
</event>
<event>
 7   0  0.6206631E-02  0.9118800E+02  0.7818608E-02  0.1180000E+00
       11   -1    0    0    0    0  0.00000000000E+00  0.00000000000E+00  0.11999999989E+02  0.12000000000E+02  0.51109989000E-03 0.  1.
     -623   -1    0    0    0    0  0.00000000000E+00  0.00000000000E+00  0.42561509872E-11  0.25126700000E+02  0.25126700000E+02 0. -1.
      622    2    1    2    0    0 -0.15648039146E-02  0.42965977083E-02  0.11933660829E+02  0.11934261366E+02  0.11963558383E+00 0.  0.
       11    1    1    2    0    0 -0.61958053276E-02 -0.93626541564E-02  0.64769038158E-01  0.65736875676E-01  0.51109989000E-03 0.  1.
     -623    1    1    2    0    0  0.77606092422E-02  0.50660564481E-02  0.15701223701E-02  0.25126701758E+02  0.25126700000E+02 0. -1.
     -611    1    3    3    0    0 -0.16662609030E-01 -0.51377834407E-01  0.38945517354E+01  0.38949390937E+01  0.10000000000E-01 0. -1.
      611    1    3    3    0    0  0.15097805116E-01  0.55674432116E-01  0.80391090932E+01  0.80393222723E+01  0.10000000000E-01 0.  1.
</event>
<event>
 7   0  0.6206631E-02  0.9118800E+02  0.7818608E-02  0.1180000E+00
       11   -1    0    0    0    0  0.00000000000E+00  0.00000000000E+00  0.11999999989E+02  0.12000000000E+02  0.51109989000E-03 0.  1.
     -623   -1    0    0    0    0  0.00000000000E+00  0.00000000000E+00  0.42561509872E-11  0.25126700000E+02  0.25126700000E+02 0.  1.
      622    2    1    2    0    0 -0.41130246080E-02 -0.93305230616E-02  0.11955803285E+02  0.11956227245E+02  0.10016869761E+00 0.  0.
       11    1    1    2    0    0  0.17372758981E-02 -0.13982711751E-02  0.43710511216E-01  0.43770347311E-01  0.51109989000E-03 0.  1.
     -623    1    1    2    0    0  0.23757487099E-02  0.10728794237E-01  0.48619272972E-03  0.25126702408E+02  0.25126700000E+02 0.  1.
     -611    1    3    3    0    0 -0.24924205536E-01 -0.47332317290E-01  0.54385309799E+01  0.54388032492E+01  0.10000000000E-01 0.  1.
      611    1    3    3    0    0  0.20811180928E-01  0.38001794228E-01  0.65172723053E+01  0.65174239959E+01  0.10000000000E-01 0. -1.
</event>
<event>
 7   0  0.6206631E-02  0.9118800E+02  0.7818608E-02  0.1180000E+00
       11   -1    0    0    0    0  0.00000000000E+00  0.00000000000E+00  0.11999999989E+02  0.12000000000E+02  0.51109989000E-03 0.  1.
     -623   -1    0    0    0    0  0.00000000000E+00  0.00000000000E+00  0.42561509872E-11  0.25126700000E+02  0.25126700000E+02 0.  1.
      622    2    1    2    0    0 -0.39552165188E-01  0.46116003395E-02  0.11916565534E+02  0.11917133461E+02  0.10931679323E+00 0.  0.
       11    1    1    2    0    0  0.35882213508E-01 -0.83866063758E-02  0.74218340493E-01  0.82864296904E-01  0.51109989000E-03 0.  1.
     -623    1    1    2    0    0  0.36699516807E-02  0.37750060363E-02  0.92161143201E-02  0.25126702242E+02  0.25126700000E+02 0.  1.
     -611    1    3    3    0    0  0.16193472879E-01  0.11612109940E-01  0.58564465722E+00  0.58606888178E+00  0.10000000000E-01 0. -1.
      611    1    3    3    0    0 -0.55745638068E-01 -0.70005096001E-02  0.11330920877E+02  0.11331064580E+02  0.10000000000E-01 0.  1.
</event>
<event>
 7   0  0.6206631E-02  0.9118800E+02  0.7818608E-02  0.1180000E+00
       11   -1    0    0    0    0  0.00000000000E+00  0.00000000000E+00  0.11999999989E+02  0.12000000000E+02  0.51109989000E-03 0. -1.
     -623   -1    0    0    0    0  0.00000000000E+00  0.00000000000E+00  0.42561509872E-11  0.25126700000E+02  0.25126700000E+02 0. -1.
      622    2    1    2    0    0 -0.46968367394E-02  0.12501031506E-02  0.11995396602E+02  0.11995761564E+02  0.93446416339E-01 0.  0.
       11    1    1    2    0    0  0.15216552025E-02 -0.32555632360E-02  0.21876072166E-02  0.42380390495E-02  0.51109989000E-03 0. -1.
     -623    1    1    2    0    0  0.31751815368E-02  0.20054600855E-02  0.24157795135E-02  0.25126700397E+02  0.25126700000E+02 0. -1.
     -611    1    3    3    0    0  0.92693375726E-02  0.72334678524E-02  0.33942629030E+00  0.33977705959E+00  0.10000000000E-01 0. -1.
      611    1    3    3    0    0 -0.13966174312E-01 -0.59833647018E-02  0.11655970312E+02  0.11655984505E+02  0.10000000000E-01 0. -1.
</event>
<event>
 7   0  0.6206631E-02  0.9118800E+02  0.7818608E-02  0.1180000E+00
       11   -1    0    0    0    0  0.00000000000E+00  0.00000000000E+00  0.11999999989E+02  0.12000000000E+02  0.51109989000E-03 0. -1.
     -623   -1    0    0    0    0  0.00000000000E+00  0.00000000000E+00  0.42561509872E-11  0.25126700000E+02  0.25126700000E+02 0.  1.
      622    2    1    2    0    0  0.72713886035E-02  0.95265781160E-02  0.11990872914E+02  0.11991325253E+02  0.10346238410E+00 0.  0.
       11    1    1    2    0    0 -0.30963760769E-03 -0.24276953872E-02  0.83045814779E-02  0.86727663976E-02  0.51109989000E-03 0. -1.
     -623    1    1    2    0    0 -0.69617509958E-02 -0.70988827288E-02  0.82249415771E-03  0.25126701981E+02  0.25126700000E+02 0.  1.
     -611    1    3    3    0    0  0.44746890749E-01 -0.12517433650E-01  0.89380940397E+01  0.89382204064E+01  0.10000000000E-01 0. -1.
      611    1    3    3    0    0 -0.37475502145E-01  0.22044011766E-01  0.30527788738E+01  0.30531048466E+01  0.10000000000E-01 0.  1.
</event>
<event>
 7   0  0.6206631E-02  0.9118800E+02  0.7818608E-02  0.1180000E+00
       11   -1    0    0    0    0  0.00000000000E+00  0.00000000000E+00  0.11999999989E+02  0.12000000000E+02  0.51109989000E-03 0. -1.
     -623   -1    0    0    0    0  0.00000000000E+00  0.00000000000E+00  0.42561509872E-11  0.25126700000E+02  0.25126700000E+02 0.  1.
      622    2    1    2    0    0  0.37977520801E-02 -0.17472349688E-01  0.11608154832E+02  0.11608638914E+02  0.10449462176E+00 0.  0.
       11    1    1    2    0    0 -0.48676827643E-02  0.17107841073E-01  0.39095630656E+00  0.39136104485E+00  0.51109989000E-03 0. -1.
     -623    1    1    2    0    0  0.10699306841E-02  0.36450861476E-03  0.88885054993E-03  0.25126700041E+02  0.25126700000E+02 0.  1.
     -611    1    3    3    0    0 -0.39133269189E-01  0.21660245246E-01  0.59718745050E+01  0.59720503750E+01  0.10000000000E-01 0.  1.
      611    1    3    3    0    0  0.42931021269E-01 -0.39132594934E-01  0.56362803270E+01  0.56365885390E+01  0.10000000000E-01 0. -1.
</event>
<event>
 7   0  0.6206631E-02  0.9118800E+02  0.7818608E-02  0.1180000E+00
       11   -1    0    0    0    0  0.00000000000E+00  0.00000000000E+00  0.11999999989E+02  0.12000000000E+02  0.51109989000E-03 0.  1.
     -623   -1    0    0    0    0  0.00000000000E+00  0.00000000000E+00  0.42561509872E-11  0.25126700000E+02  0.25126700000E+02 0.  1.
      622    2    1    2    0    0  0.33247981419E-02 -0.21330556814E-02  0.11937995020E+02  0.11938160092E+02  0.62655307231E-01 0.  0.
       11    1    1    2    0    0 -0.30455425330E-02  0.13305547753E-02  0.61748403310E-01  0.61839891978E-01  0.51109989000E-03 0.  1.
     -623    1    1    2    0    0 -0.27925560888E-03  0.80250090612E-03  0.25656576010E-03  0.25126700016E+02  0.25126700000E+02 0.  1.
     -611    1    3    3    0    0  0.18905688070E-02 -0.40526410959E-03  0.32299101614E+00  0.32315156660E+00  0.10000000000E-01 0.  1.
      611    1    3    3    0    0  0.14342293350E-02 -0.17277915718E-02  0.11615004004E+02  0.11615008526E+02  0.10000000000E-01 0.  1.
</event>
<event>
 7   0  0.6206631E-02  0.9118800E+02  0.7818608E-02  0.1180000E+00
       11   -1    0    0    0    0  0.00000000000E+00  0.00000000000E+00  0.11999999989E+02  0.12000000000E+02  0.51109989000E-03 0.  1.
     -623   -1    0    0    0    0  0.00000000000E+00  0.00000000000E+00  0.42561509872E-11  0.25126700000E+02  0.25126700000E+02 0. -1.
      622    2    1    2    0    0  0.10507781927E-01  0.84474306162E-03  0.11664082768E+02  0.11664702039E+02  0.11973180974E+00 0.  0.
       11    1    1    2    0    0 -0.16571814651E-01  0.48606785153E-02  0.33485111629E+00  0.33529655910E+00  0.51109989000E-03 0.  1.
     -623    1    1    2    0    0  0.60640327239E-02 -0.57054215769E-02  0.10661047549E-02  0.25126701402E+02  0.25126700000E+02 0. -1.
     -611    1    3    3    0    0  0.31679330117E-01 -0.50753832042E-01  0.72882532310E+01  0.72885056555E+01  0.10000000000E-01 0.  1.
      611    1    3    3    0    0 -0.21171548190E-01  0.51598575103E-01  0.43758295371E+01  0.43761963833E+01  0.10000000000E-01 0. -1.
</event>
<event>
 7   0  0.6206631E-02  0.9118800E+02  0.7818608E-02  0.1180000E+00
       11   -1    0    0    0    0  0.00000000000E+00  0.00000000000E+00  0.11999999989E+02  0.12000000000E+02  0.51109989000E-03 0. -1.
     -623   -1    0    0    0    0  0.00000000000E+00  0.00000000000E+00  0.42561509872E-11  0.25126700000E+02  0.25126700000E+02 0. -1.
      622    2    1    2    0    0 -0.89674177590E-02  0.12424886880E-01  0.10353567259E+02  0.10353983680E+02  0.91587423538E-01 0.  0.
       11    1    1    2    0    0  0.81959360294E-02 -0.10422514258E-01  0.16459627415E+01  0.16460162241E+01  0.51109989000E-03 0. -1.
     -623    1    1    2    0    0  0.77148172958E-03 -0.20023726218E-02  0.46998817563E-03  0.25126700096E+02  0.25126700000E+02 0. -1.
     -611    1    3    3    0    0 -0.28333431312E-02 -0.35380120445E-01  0.26164070813E+01  0.26166669249E+01  0.10000000000E-01 0.  1.
      611    1    3    3    0    0 -0.61340746278E-02  0.47805007326E-01  0.77371601781E+01  0.77373167550E+01  0.10000000000E-01 0. -1.
</event>
<event>
 7   0  0.6206631E-02  0.9118800E+02  0.7818608E-02  0.1180000E+00
       11   -1    0    0    0    0  0.00000000000E+00  0.00000000000E+00  0.11999999989E+02  0.12000000000E+02  0.51109989000E-03 0.  1.
     -623   -1    0    0    0    0  0.00000000000E+00  0.00000000000E+00  0.42561509872E-11  0.25126700000E+02  0.25126700000E+02 0. -1.
      622    2    1    2    0    0 -0.25597614846E-01 -0.12353125108E-01  0.82125224538E+01  0.82128751396E+01  0.70605714720E-01 0.  0.
       11    1    1    2    0    0  0.29613835460E-01  0.11034845997E-01  0.37869926025E+01  0.37871245002E+01  0.51109989000E-03 0.  1.
     -623    1    1    2    0    0 -0.40162206135E-02  0.13182791109E-02  0.48493281509E-03  0.25126700360E+02  0.25126700000E+02 0. -1.
     -611    1    3    3    0    0 -0.12139611192E-01 -0.17319453041E-01  0.82415060839E+00  0.82448260074E+00  0.10000000000E-01 0. -1.
      611    1    3    3    0    0 -0.13458003655E-01  0.49663279328E-02  0.73883718454E+01  0.73883925389E+01  0.10000000000E-01 0.  1.
</event>
<event>
 7   0  0.6206631E-02  0.9118800E+02  0.7818608E-02  0.1180000E+00
       11   -1    0    0    0    0  0.00000000000E+00  0.00000000000E+00  0.11999999989E+02  0.12000000000E+02  0.51109989000E-03 0. -1.
     -623   -1    0    0    0    0  0.00000000000E+00  0.00000000000E+00  0.42561509872E-11  0.25126700000E+02  0.25126700000E+02 0. -1.
      622    2    1    2    0    0 -0.38329894328E-02 -0.26722505081E-01  0.11670281759E+02  0.11670573126E+02  0.77922806841E-01 0.  0.
       11    1    1    2    0    0  0.41679118158E-03 -0.21157142579E-01  0.32870014563E+00  0.32938100334E+00  0.51109989000E-03 0. -1.
     -623    1    1    2    0    0  0.34161982513E-02  0.47879647659E-01  0.10180843619E-02  0.25126745871E+02  0.25126700000E+02 0. -1.
     -611    1    3    3    0    0  0.22128781366E-01  0.15409941464E-01  0.28006653958E+01  0.28008130621E+01  0.10000000000E-01 0.  1.
      611    1    3    3    0    0 -0.25961770799E-01 -0.42132446545E-01  0.88696163632E+01  0.88697600637E+01  0.10000000000E-01 0. -1.
</event>
<event>
 7   0  0.6206631E-02  0.9118800E+02  0.7818608E-02  0.1180000E+00
       11   -1    0    0    0    0  0.00000000000E+00  0.00000000000E+00  0.11999999989E+02  0.12000000000E+02  0.51109989000E-03 0.  1.
     -623   -1    0    0    0    0  0.00000000000E+00  0.00000000000E+00  0.42561509872E-11  0.25126700000E+02  0.25126700000E+02 0.  1.
      622    2    1    2    0    0  0.58611527105E-02 -0.46825572569E-02  0.11928854794E+02  0.11930367061E+02  0.18980315782E+00 0.  0.
       11    1    1    2    0    0  0.16053279389E-02  0.59410529729E-02  0.69357364553E-01  0.69631734354E-01  0.51109989000E-03 0.  1.
     -623    1    1    2    0    0 -0.74664806494E-02 -0.12584957159E-02  0.17878305669E-02  0.25126701204E+02  0.25126700000E+02 0.  1.
     -611    1    3    3    0    0  0.29496213286E-01 -0.85002643543E-01  0.84735477234E+01  0.84740313013E+01  0.10000000000E-01 0. -1.
      611    1    3    3    0    0 -0.23635060575E-01  0.80320086286E-01  0.34553070706E+01  0.34563357598E+01  0.10000000000E-01 0.  1.
</event>
<event>
 7   0  0.6206631E-02  0.9118800E+02  0.7818608E-02  0.1180000E+00
       11   -1    0    0    0    0  0.00000000000E+00  0.00000000000E+00  0.11999999989E+02  0.12000000000E+02  0.51109989000E-03 0. -1.
     -623   -1    0    0    0    0  0.00000000000E+00  0.00000000000E+00  0.42561509872E-11  0.25126700000E+02  0.25126700000E+02 0.  1.
      622    2    1    2    0    0  0.53845518940E-02  0.63474259941E-02  0.11986874259E+02  0.11987411270E+02  0.11315995724E+00 0.  0.
       11    1    1    2    0    0 -0.31495427919E-02  0.12669027464E-02  0.12110250658E-01  0.12587456316E-01  0.51109989000E-03 0. -1.
     -623    1    1    2    0    0 -0.22350091021E-02 -0.76143287405E-02  0.10154795830E-02  0.25126701274E+02  0.25126700000E+02 0.  1.
     -611    1    3    3    0    0 -0.59903190809E-02 -0.32867214151E-01  0.10134778253E+02  0.10134838252E+02  0.10000000000E-01 0. -1.
      611    1    3    3    0    0  0.11374870975E-01  0.39214640145E-01  0.18520960054E+01  0.18525730185E+01  0.10000000000E-01 0.  1.
</event>
<event>
 7   0  0.6206631E-02  0.9118800E+02  0.7818608E-02  0.1180000E+00
       11   -1    0    0    0    0  0.00000000000E+00  0.00000000000E+00  0.11999999989E+02  0.12000000000E+02  0.51109989000E-03 0.  1.
     -623   -1    0    0    0    0  0.00000000000E+00  0.00000000000E+00  0.42561509872E-11  0.25126700000E+02  0.25126700000E+02 0. -1.
      622    2    1    2    0    0  0.23139393743E-02  0.81579564012E-03  0.11886545736E+02  0.11886612770E+02  0.39844554403E-01 0.  0.
       11    1    1    2    0    0 -0.36493009820E-03 -0.47857875042E-02  0.11328405586E+00  0.11338683994E+00  0.51109989000E-03 0.  1.
     -623    1    1    2    0    0 -0.19490092761E-02  0.39699918641E-02  0.17019692646E-03  0.25126700390E+02  0.25126700000E+02 0. -1.
     -611    1    3    3    0    0  0.89722472893E-02  0.11869563979E-01  0.91978951389E+01  0.91979126096E+01  0.10000000000E-01 0.  1.
      611    1    3    3    0    0 -0.66583079150E-02 -0.11053768339E-01  0.26886505975E+01  0.26887001607E+01  0.10000000000E-01 0.  1.
</event>
<event>
 7   0  0.6206631E-02  0.9118800E+02  0.7818608E-02  0.1180000E+00
       11   -1    0    0    0    0  0.00000000000E+00  0.00000000000E+00  0.11999999989E+02  0.12000000000E+02  0.51109989000E-03 0.  1.
     -623   -1    0    0    0    0  0.00000000000E+00  0.00000000000E+00  0.42561509872E-11  0.25126700000E+02  0.25126700000E+02 0. -1.
      622    2    1    2    0    0 -0.10321706671E-01 -0.10062042678E-01  0.10909792615E+02  0.10910049506E+02  0.73467916995E-01 0.  0.
       11    1    1    2    0    0  0.10252295341E-01  0.64304108757E-02  0.10898829209E+01  0.10899502292E+01  0.51109989000E-03 0.  1.
     -623    1    1    2    0    0  0.69411330487E-04  0.36316318019E-02  0.32445292404E-03  0.25126700265E+02  0.25126700000E+02 0. -1.
     -611    1    3    3    0    0  0.18674342186E-01 -0.18443043103E-01  0.19686053669E+01  0.19688057211E+01  0.10000000000E-01 0. -1.
      611    1    3    3    0    0 -0.28996048857E-01  0.83810004249E-02  0.89411872484E+01  0.89412437850E+01  0.10000000000E-01 0.  1.
</event>
<event>
 7   0  0.6206631E-02  0.9118800E+02  0.7818608E-02  0.1180000E+00
       11   -1    0    0    0    0  0.00000000000E+00  0.00000000000E+00  0.11999999989E+02  0.12000000000E+02  0.51109989000E-03 0. -1.
     -623   -1    0    0    0    0  0.00000000000E+00  0.00000000000E+00  0.42561509872E-11  0.25126700000E+02  0.25126700000E+02 0.  1.
      622    2    1    2    0    0  0.54341646835E-02  0.34656878614E-02  0.11801319487E+02  0.11801495487E+02  0.64129204147E-01 0.  0.
       11    1    1    2    0    0 -0.80077544467E-02 -0.95129834371E-03  0.19833972960E+00  0.19850425351E+00  0.51109989000E-03 0. -1.
     -623    1    1    2    0    0  0.25735897633E-02 -0.25143895176E-02  0.34077296598E-03  0.25126700260E+02  0.25126700000E+02 0.  1.
     -611    1    3    3    0    0  0.13112494334E-01  0.79867603688E-02  0.11244514644E+02  0.11244529572E+02  0.10000000000E-01 0. -1.
      611    1    3    3    0    0 -0.76783296509E-02 -0.45210725074E-02  0.55680484257E+00  0.55696591418E+00  0.10000000000E-01 0.  1.
</event>
<event>
 7   0  0.6206631E-02  0.9118800E+02  0.7818608E-02  0.1180000E+00
       11   -1    0    0    0    0  0.00000000000E+00  0.00000000000E+00  0.11999999989E+02  0.12000000000E+02  0.51109989000E-03 0. -1.
     -623   -1    0    0    0    0  0.00000000000E+00  0.00000000000E+00  0.42561509872E-11  0.25126700000E+02  0.25126700000E+02 0. -1.
      622    2    1    2    0    0  0.62369370494E-02  0.51398762644E-03  0.11847846238E+02  0.11848455535E+02  0.11999546551E+00 0.  0.
       11    1    1    2    0    0 -0.44598108374E-02 -0.10459773770E-02  0.15147427553E+00  0.15154438740E+00  0.51109989000E-03 0. -1.
     -623    1    1    2    0    0 -0.17771262120E-02  0.53198975053E-03  0.67947521846E-03  0.25126700078E+02  0.25126700000E+02 0. -1.
     -611    1    3    3    0    0 -0.47875216428E-01 -0.13294592165E-01  0.30057366298E+01  0.30061639128E+01  0.10000000000E-01 0.  1.
      611    1    3    3    0    0  0.54112153477E-01  0.13808579792E-01  0.88421096085E+01  0.88422916222E+01  0.10000000000E-01 0. -1.
</event>
<event>
 7   0  0.6206631E-02  0.9118800E+02  0.7818608E-02  0.1180000E+00
       11   -1    0    0    0    0  0.00000000000E+00  0.00000000000E+00  0.11999999989E+02  0.12000000000E+02  0.51109989000E-03 0. -1.
     -623   -1    0    0    0    0  0.00000000000E+00  0.00000000000E+00  0.42561509872E-11  0.25126700000E+02  0.25126700000E+02 0.  1.
      622    2    1    2    0    0 -0.21008313416E-01  0.24525593788E-01  0.76079653562E+01  0.76084452414E+01  0.79115581387E-01 0.  0.
       11    1    1    2    0    0  0.16405995884E-01 -0.40757402608E-01  0.43913292722E+01  0.43915490844E+01  0.51109989000E-03 0. -1.
     -623    1    1    2    0    0  0.46023175320E-02  0.16231808820E-01  0.70536070076E-03  0.25126705674E+02  0.25126700000E+02 0.  1.
     -611    1    3    3    0    0  0.15751626908E-01 -0.16954956964E-01  0.35437736190E+01  0.35438632941E+01  0.10000000000E-01 0.  1.
      611    1    3    3    0    0 -0.36759940324E-01  0.41480550751E-01  0.40641917372E+01  0.40645819473E+01  0.10000000000E-01 0. -1.
</event>
<event>
 7   0  0.6206631E-02  0.9118800E+02  0.7818608E-02  0.1180000E+00
       11   -1    0    0    0    0  0.00000000000E+00  0.00000000000E+00  0.11999999989E+02  0.12000000000E+02  0.51109989000E-03 0. -1.
     -623   -1    0    0    0    0  0.00000000000E+00  0.00000000000E+00  0.42561509872E-11  0.25126700000E+02  0.25126700000E+02 0. -1.
      622    2    1    2    0    0 -0.46011873740E-03  0.36089941934E-02  0.11987334953E+02  0.11987468370E+02  0.56439485305E-01 0.  0.
       11    1    1    2    0    0  0.14753728775E-02 -0.45225504326E-02  0.11582263213E-01  0.12531569407E-01  0.51109989000E-03 0. -1.
     -623    1    1    2    0    0 -0.10152541401E-02  0.91355623911E-03  0.10827730004E-02  0.25126700060E+02  0.25126700000E+02 0. -1.
     -611    1    3    3    0    0  0.94636929045E-02 -0.23196862484E-02  0.79250040674E+00  0.79262338920E+00  0.10000000000E-01 0. -1.
      611    1    3    3    0    0 -0.99238116419E-02  0.59286804419E-02  0.11194834546E+02  0.11194844981E+02  0.10000000000E-01 0. -1.
</event>
<event>
 7   0  0.6206631E-02  0.9118800E+02  0.7818608E-02  0.1180000E+00
       11   -1    0    0    0    0  0.00000000000E+00  0.00000000000E+00  0.11999999989E+02  0.12000000000E+02  0.51109989000E-03 0. -1.
     -623   -1    0    0    0    0  0.00000000000E+00  0.00000000000E+00  0.42561509872E-11  0.25126700000E+02  0.25126700000E+02 0.  1.
      622    2    1    2    0    0 -0.20923504132E-02 -0.12294044211E-02  0.11973406216E+02  0.11973518955E+02  0.51902421370E-01 0.  0.
       11    1    1    2    0    0  0.98566045779E-03  0.19942527902E-03  0.26456960834E-01  0.26480998786E-01  0.51109989000E-03 0. -1.
     -623    1    1    2    0    0  0.11066899554E-02  0.10299791421E-02  0.13681185618E-03  0.25126700046E+02  0.25126700000E+02 0.  1.
     -611    1    3    3    0    0 -0.13004596749E-01  0.30697952625E-02  0.10783557830E+02  0.10783570745E+02  0.10000000000E-01 0. -1.
      611    1    3    3    0    0  0.10912246336E-01 -0.42991996837E-02  0.11898483867E+01  0.11899482105E+01  0.10000000000E-01 0.  1.
</event>
<event>
 7   0  0.6206631E-02  0.9118800E+02  0.7818608E-02  0.1180000E+00
       11   -1    0    0    0    0  0.00000000000E+00  0.00000000000E+00  0.11999999989E+02  0.12000000000E+02  0.51109989000E-03 0. -1.
     -623   -1    0    0    0    0  0.00000000000E+00  0.00000000000E+00  0.42561509872E-11  0.25126700000E+02  0.25126700000E+02 0. -1.
      622    2    1    2    0    0 -0.13386943570E-01  0.24385651447E-01  0.10594106226E+02  0.10594365017E+02  0.68625859497E-01 0.  0.
       11    1    1    2    0    0  0.13825066716E-01 -0.22065110446E-01  0.14053935806E+01  0.14056348670E+01  0.51109989000E-03 0. -1.
     -623    1    1    2    0    0 -0.43812314567E-03 -0.23205410012E-02  0.50018210082E-03  0.25126700116E+02  0.25126700000E+02 0. -1.
     -611    1    3    3    0    0 -0.36457646537E-01  0.11695384741E-01  0.81579905902E+01  0.81580865656E+01  0.10000000000E-01 0. -1.
      611    1    3    3    0    0  0.23070702967E-01  0.12690266706E-01  0.24361156362E+01  0.24362784515E+01  0.10000000000E-01 0.  1.
</event>
<event>
 7   0  0.6206631E-02  0.9118800E+02  0.7818608E-02  0.1180000E+00
       11   -1    0    0    0    0  0.00000000000E+00  0.00000000000E+00  0.11999999989E+02  0.12000000000E+02  0.51109989000E-03 0. -1.
     -623   -1    0    0    0    0  0.00000000000E+00  0.00000000000E+00  0.42561509872E-11  0.25126700000E+02  0.25126700000E+02 0. -1.
      622    2    1    2    0    0 -0.13746981429E-01  0.11688812899E-01  0.11168554192E+02  0.11170065702E+02  0.18286449201E+00 0.  0.
       11    1    1    2    0    0 -0.84709796775E-02 -0.23835408911E-01  0.82953571104E+00  0.82992146696E+00  0.51109989000E-03 0. -1.
     -623    1    1    2    0    0  0.22217961106E-01  0.12146596012E-01  0.19100857672E-02  0.25126712831E+02  0.25126700000E+02 0. -1.
     -611    1    3    3    0    0  0.16434420644E-01  0.88095811165E-01  0.39094358427E+01  0.39104756194E+01  0.10000000000E-01 0. -1.
      611    1    3    3    0    0 -0.30181402073E-01 -0.76406998266E-01  0.72591183496E+01  0.72595900821E+01  0.10000000000E-01 0. -1.
</event>
<event>
 7   0  0.6206631E-02  0.9118800E+02  0.7818608E-02  0.1180000E+00
       11   -1    0    0    0    0  0.00000000000E+00  0.00000000000E+00  0.11999999989E+02  0.12000000000E+02  0.51109989000E-03 0.  1.
     -623   -1    0    0    0    0  0.00000000000E+00  0.00000000000E+00  0.42561509872E-11  0.25126700000E+02  0.25126700000E+02 0.  1.
      622    2    1    2    0    0 -0.15627191358E-01  0.16640369232E-01  0.11020546651E+02  0.11020892132E+02  0.84224555003E-01 0.  0.
       11    1    1    2    0    0  0.39890559325E-02 -0.18629161731E-01  0.97891958541E+00  0.97910508842E+00  0.51109989000E-03 0.  1.
     -623    1    1    2    0    0  0.11638135426E-01  0.19887924990E-02  0.53375223487E-03  0.25126702780E+02  0.25126700000E+02 0.  1.
     -611    1    3    3    0    0 -0.29828854987E-02  0.46370874045E-01  0.43482500287E+01  0.43485097985E+01  0.10000000000E-01 0. -1.
      611    1    3    3    0    0 -0.12644305859E-01 -0.29730504813E-01  0.66722966228E+01  0.66723823335E+01  0.10000000000E-01 0.  1.
</event>
<event>
 7   0  0.6206631E-02  0.9118800E+02  0.7818608E-02  0.1180000E+00
       11   -1    0    0    0    0  0.00000000000E+00  0.00000000000E+00  0.11999999989E+02  0.12000000000E+02  0.51109989000E-03 0. -1.
     -623   -1    0    0    0    0  0.00000000000E+00  0.00000000000E+00  0.42561509872E-11  0.25126700000E+02  0.25126700000E+02 0. -1.
      622    2    1    2    0    0 -0.38514284797E-01  0.38056456413E-01  0.11493116767E+02  0.11494031361E+02  0.13450755006E+00 0.  0.
       11    1    1    2    0    0  0.27880142540E-01 -0.42902719191E-01  0.50337168966E+00  0.50596567555E+00  0.51109989000E-03 0. -1.
     -623    1    1    2    0    0  0.10634142257E-01  0.48462627779E-02  0.35115327884E-02  0.25126702963E+02  0.25126700000E+02 0. -1.
     -611    1    3    3    0    0 -0.60502326621E-01  0.92488275526E-02  0.22950131488E+01  0.22958509153E+01  0.10000000000E-01 0.  1.
      611    1    3    3    0    0  0.21988041824E-01  0.28807628861E-01  0.91981036179E+01  0.91981804461E+01  0.10000000000E-01 0. -1.
</event>
<event>
 7   0  0.6206631E-02  0.9118800E+02  0.7818608E-02  0.1180000E+00
       11   -1    0    0    0    0  0.00000000000E+00  0.00000000000E+00  0.11999999989E+02  0.12000000000E+02  0.51109989000E-03 0.  1.
     -623   -1    0    0    0    0  0.00000000000E+00  0.00000000000E+00  0.42561509872E-11  0.25126700000E+02  0.25126700000E+02 0.  1.
      622    2    1    2    0    0  0.46801836274E-01 -0.11777424284E+00  0.10018616247E+02  0.10020573721E+02  0.15220054033E+00 0.  0.
       11    1    1    2    0    0 -0.48565118606E-01  0.13545788611E+00  0.19741812882E+01  0.19794189626E+01  0.51109989000E-03 0.  1.
     -623    1    1    2    0    0  0.17632823320E-02 -0.17683643266E-01  0.72024541310E-02  0.25126707317E+02  0.25126700000E+02 0.  1.
     -611    1    3    3    0    0 -0.13289305274E-01 -0.12680167696E+00  0.52386426605E+01  0.52402034498E+01  0.10000000000E-01 0. -1.
      611    1    3    3    0    0  0.60091141548E-01  0.90274341252E-02  0.47799735864E+01  0.47803702708E+01  0.10000000000E-01 0.  1.
</event>
<event>
 7   0  0.6206631E-02  0.9118800E+02  0.7818608E-02  0.1180000E+00
       11   -1    0    0    0    0  0.00000000000E+00  0.00000000000E+00  0.11999999989E+02  0.12000000000E+02  0.51109989000E-03 0.  1.
     -623   -1    0    0    0    0  0.00000000000E+00  0.00000000000E+00  0.42561509872E-11  0.25126700000E+02  0.25126700000E+02 0.  1.
      622    2    1    2    0    0 -0.51918472390E-03  0.71209360064E-02  0.11798953950E+02  0.11799267283E+02  0.85692119261E-01 0.  0.
       11    1    1    2    0    0 -0.13988643409E-02 -0.59134769111E-02  0.20063996084E+00  0.20073261105E+00  0.51109989000E-03 0.  1.
     -623    1    1    2    0    0  0.19180490648E-02 -0.12074590953E-02  0.40607847368E-03  0.25126700106E+02  0.25126700000E+02 0.  1.
     -611    1    3    3    0    0  0.39148618483E-01 -0.71904773822E-02  0.68800815999E+01  0.68802040042E+01  0.10000000000E-01 0. -1.
      611    1    3    3    0    0 -0.39667803207E-01  0.14311413389E-01  0.49188723499E+01  0.49190632793E+01  0.10000000000E-01 0.  1.
</event>
<event>
 7   0  0.6206631E-02  0.9118800E+02  0.7818608E-02  0.1180000E+00
       11   -1    0    0    0    0  0.00000000000E+00  0.00000000000E+00  0.11999999989E+02  0.12000000000E+02  0.51109989000E-03 0. -1.
     -623   -1    0    0    0    0  0.00000000000E+00  0.00000000000E+00  0.42561509872E-11  0.25126700000E+02  0.25126700000E+02 0. -1.
      622    2    1    2    0    0 -0.14787262703E+00 -0.21607500580E-01  0.94206475742E+01  0.94222513027E+01  0.88801447938E-01 0.  0.
       11    1    1    2    0    0  0.13425550161E+00  0.20430578245E-01  0.25741647599E+01  0.25777444444E+01  0.51109989000E-03 0. -1.
     -623    1    1    2    0    0  0.13617125420E-01  0.11769223350E-02  0.51876550732E-02  0.25126704253E+02  0.25126700000E+02 0. -1.
     -611    1    3    3    0    0 -0.27079501430E-01 -0.41883988921E-01  0.26320133726E+01  0.26325048834E+01  0.10000000000E-01 0.  1.
      611    1    3    3    0    0 -0.12079312560E+00  0.20276488341E-01  0.67886342016E+01  0.67897464193E+01  0.10000000000E-01 0. -1.
</event>
<event>
 7   0  0.6206631E-02  0.9118800E+02  0.7818608E-02  0.1180000E+00
       11   -1    0    0    0    0  0.00000000000E+00  0.00000000000E+00  0.11999999989E+02  0.12000000000E+02  0.51109989000E-03 0.  1.
     -623   -1    0    0    0    0  0.00000000000E+00  0.00000000000E+00  0.42561509872E-11  0.25126700000E+02  0.25126700000E+02 0.  1.
      622    2    1    2    0    0 -0.51331427505E-01  0.91779751177E-01  0.36951849925E+01  0.36987492415E+01  0.12367451071E+00 0.  0.
       11    1    1    2    0    0  0.48729800229E-01 -0.93203337264E-01  0.83005839324E+01  0.83012502272E+01  0.51109989000E-03 0.  1.
     -623    1    1    2    0    0  0.26016272754E-02  0.14235860864E-02  0.42310642350E-02  0.25126700531E+02  0.25126700000E+02 0.  1.
     -611    1    3    3    0    0 -0.18279932106E-01  0.31314505614E-01  0.29679599833E+01  0.29681983116E+01  0.10000000000E-01 0. -1.
      611    1    3    3    0    0 -0.33051495399E-01  0.60465245564E-01  0.72722500918E+00  0.73055092995E+00  0.10000000000E-01 0.  1.
</event>
<event>
 7   0  0.6206631E-02  0.9118800E+02  0.7818608E-02  0.1180000E+00
       11   -1    0    0    0    0  0.00000000000E+00  0.00000000000E+00  0.11999999989E+02  0.12000000000E+02  0.51109989000E-03 0.  1.
     -623   -1    0    0    0    0  0.00000000000E+00  0.00000000000E+00  0.42561509872E-11  0.25126700000E+02  0.25126700000E+02 0.  1.
      622    2    1    2    0    0 -0.62977605198E-02 -0.68436211666E-02  0.11547255195E+02  0.11547799774E+02  0.11176126925E+00 0.  0.
       11    1    1    2    0    0  0.47539219887E-02  0.62674476084E-02  0.45213144845E+00  0.45220016428E+00  0.51109989000E-03 0.  1.
     -623    1    1    2    0    0  0.15438385311E-02  0.57617355821E-03  0.61334530970E-03  0.25126700062E+02  0.25126700000E+02 0.  1.
     -611    1    3    3    0    0  0.43230615692E-01 -0.15920684955E-01  0.83445728662E+01  0.83447060268E+01  0.10000000000E-01 0.  1.
      611    1    3    3    0    0 -0.49528376212E-01  0.90770637884E-02  0.32026823292E+01  0.32030937474E+01  0.10000000000E-01 0. -1.
</event>
<event>
 7   0  0.6206631E-02  0.9118800E+02  0.7818608E-02  0.1180000E+00
       11   -1    0    0    0    0  0.00000000000E+00  0.00000000000E+00  0.11999999989E+02  0.12000000000E+02  0.51109989000E-03 0.  1.
     -623   -1    0    0    0    0  0.00000000000E+00  0.00000000000E+00  0.42561509872E-11  0.25126700000E+02  0.25126700000E+02 0. -1.
      622    2    1    2    0    0  0.62171971756E-02  0.97254487096E-02  0.11877371003E+02  0.11878143778E+02  0.13499790272E+00 0.  0.
       11    1    1    2    0    0 -0.44515762297E-02 -0.10019950185E-01  0.12136077732E+00  0.12185612593E+00  0.51109989000E-03 0.  1.
     -623    1    1    2    0    0 -0.17656209459E-02  0.29450147522E-03  0.12682086535E-02  0.25126700096E+02  0.25126700000E+02 0. -1.
     -611    1    3    3    0    0  0.22858103519E-01  0.60939790197E-01  0.90670302301E+01  0.90672693433E+01  0.10000000000E-01 0.  1.
      611    1    3    3    0    0 -0.16640906343E-01 -0.51214341488E-01  0.28103407730E+01  0.28108744350E+01  0.10000000000E-01 0. -1.
</event>
<event>
 7   0  0.6206631E-02  0.9118800E+02  0.7818608E-02  0.1180000E+00
       11   -1    0    0    0    0  0.00000000000E+00  0.00000000000E+00  0.11999999989E+02  0.12000000000E+02  0.51109989000E-03 0. -1.
     -623   -1    0    0    0    0  0.00000000000E+00  0.00000000000E+00  0.42561509872E-11  0.25126700000E+02  0.25126700000E+02 0.  1.
      622    2    1    2    0    0 -0.81992761456E-03  0.47893646591E-02  0.97627157584E+01  0.97634175636E+01  0.11696123748E+00 0.  0.
       11    1    1    2    0    0  0.26588814480E-02 -0.42440711441E-02  0.22365766877E+01  0.22365823532E+01  0.51109989000E-03 0. -1.
     -623    1    1    2    0    0 -0.18389538334E-02 -0.54529351491E-03  0.70754303941E-03  0.25126700083E+02  0.25126700000E+02 0.  1.
     -611    1    3    3    0    0  0.13913531043E-01  0.58070833506E-01  0.46925113624E+01  0.46929019481E+01  0.10000000000E-01 0.  1.
      611    1    3    3    0    0 -0.14733458658E-01 -0.53281468847E-01  0.50702043960E+01  0.50705156155E+01  0.10000000000E-01 0. -1.
</event>
<event>
 7   0  0.6206631E-02  0.9118800E+02  0.7818608E-02  0.1180000E+00
       11   -1    0    0    0    0  0.00000000000E+00  0.00000000000E+00  0.11999999989E+02  0.12000000000E+02  0.51109989000E-03 0.  1.
     -623   -1    0    0    0    0  0.00000000000E+00  0.00000000000E+00  0.42561509872E-11  0.25126700000E+02  0.25126700000E+02 0. -1.
      622    2    1    2    0    0 -0.20518805323E-02 -0.10996852131E-02  0.11970616550E+02  0.11970994461E+02  0.95091528256E-01 0.  0.
       11    1    1    2    0    0 -0.19034724147E-02  0.32353974872E-02  0.28756655976E-01  0.29005128688E-01  0.51109989000E-03 0.  1.
     -623    1    1    2    0    0  0.39553529470E-02 -0.21357122741E-02  0.62678357290E-03  0.25126700410E+02  0.25126700000E+02 0. -1.
     -611    1    3    3    0    0  0.14389512951E-01  0.29349137269E-01  0.99379566702E+01  0.99380154563E+01  0.10000000000E-01 0.  1.
      611    1    3    3    0    0 -0.16441393483E-01 -0.30448822482E-01  0.20326598793E+01  0.20329790051E+01  0.10000000000E-01 0. -1.
</event>
<event>
 7   0  0.6206631E-02  0.9118800E+02  0.7818608E-02  0.1180000E+00
       11   -1    0    0    0    0  0.00000000000E+00  0.00000000000E+00  0.11999999989E+02  0.12000000000E+02  0.51109989000E-03 0. -1.
     -623   -1    0    0    0    0  0.00000000000E+00  0.00000000000E+00  0.42561509872E-11  0.25126700000E+02  0.25126700000E+02 0.  1.
      622    2    1    2    0    0 -0.49645452325E-01 -0.25592419886E-01  0.10030020193E+02  0.10030787461E+02  0.11078078127E+00 0.  0.
       11    1    1    2    0    0  0.61381742391E-01 -0.69364216714E-01  0.19668503924E+01  0.19690301776E+01  0.51109989000E-03 0. -1.
     -623    1    1    2    0    0 -0.11736290066E-01  0.94956636600E-01  0.31294037751E-02  0.25126882361E+02  0.25126700000E+02 0.  1.
     -611    1    3    3    0    0 -0.71550290467E-01 -0.51407845823E-01  0.69952318860E+01  0.69957938327E+01  0.10000000000E-01 0. -1.
      611    1    3    3    0    0  0.21904838142E-01  0.25815425937E-01  0.30347883069E+01  0.30349936286E+01  0.10000000000E-01 0. -1.
</event>
<event>
 7   0  0.6206631E-02  0.9118800E+02  0.7818608E-02  0.1180000E+00
       11   -1    0    0    0    0  0.00000000000E+00  0.00000000000E+00  0.11999999989E+02  0.12000000000E+02  0.51109989000E-03 0. -1.
     -623   -1    0    0    0    0  0.00000000000E+00  0.00000000000E+00  0.42561509872E-11  0.25126700000E+02  0.25126700000E+02 0. -1.
      622    2    1    2    0    0 -0.17382759593E-01  0.15334274292E-01  0.11876421380E+02  0.11877034748E+02  0.11845799877E+00 0.  0.
       11    1    1    2    0    0  0.21717445468E-01 -0.99383116496E-02  0.12062129712E+00  0.12296412493E+00  0.51109989000E-03 0. -1.
     -623    1    1    2    0    0 -0.43346858744E-02 -0.53959626419E-02  0.29573117323E-02  0.25126701127E+02  0.25126700000E+02 0. -1.
     -611    1    3    3    0    0 -0.22108092787E-02  0.13489205091E-01  0.11599191989E+02  0.11599204354E+02  0.10000000000E-01 0. -1.
      611    1    3    3    0    0 -0.15171950315E-01  0.18450692008E-02  0.27722939089E+00  0.27783039346E+00  0.10000000000E-01 0.  1.
</event>
<event>
 7   0  0.6206631E-02  0.9118800E+02  0.7818608E-02  0.1180000E+00
       11   -1    0    0    0    0  0.00000000000E+00  0.00000000000E+00  0.11999999989E+02  0.12000000000E+02  0.51109989000E-03 0. -1.
     -623   -1    0    0    0    0  0.00000000000E+00  0.00000000000E+00  0.42561509872E-11  0.25126700000E+02  0.25126700000E+02 0. -1.
      622    2    1    2    0    0  0.31355723214E-04 -0.62633776246E-02  0.11919356401E+02  0.11919858914E+02  0.10927156604E+00 0.  0.
       11    1    1    2    0    0 -0.76901782798E-02  0.68089722142E-02  0.79477287067E-01  0.80139885995E-01  0.51109989000E-03 0. -1.
     -623    1    1    2    0    0  0.76588225566E-02 -0.54559458952E-03  0.11663008731E-02  0.25126701200E+02  0.25126700000E+02 0. -1.
     -611    1    3    3    0    0 -0.32080236268E-01  0.27522864382E-01  0.90679201832E+01  0.90680242114E+01  0.10000000000E-01 0. -1.
      611    1    3    3    0    0  0.32111591991E-01 -0.33786242007E-01  0.28514362180E+01  0.28518347024E+01  0.10000000000E-01 0.  1.
</event>
<event>
 7   0  0.6206631E-02  0.9118800E+02  0.7818608E-02  0.1180000E+00
       11   -1    0    0    0    0  0.00000000000E+00  0.00000000000E+00  0.11999999989E+02  0.12000000000E+02  0.51109989000E-03 0. -1.
     -623   -1    0    0    0    0  0.00000000000E+00  0.00000000000E+00  0.42561509872E-11  0.25126700000E+02  0.25126700000E+02 0. -1.
      622    2    1    2    0    0  0.37176919340E-02 -0.67005087923E-03  0.10674785116E+02  0.10675132413E+02  0.86026073593E-01 0.  0.
       11    1    1    2    0    0 -0.18829818359E-02  0.45665782821E-02  0.13248579084E+01  0.13248672152E+01  0.51109989000E-03 0. -1.
     -623    1    1    2    0    0 -0.18347100981E-02 -0.38965274028E-02  0.35696425684E-03  0.25126700372E+02  0.25126700000E+02 0. -1.
     -611    1    3    3    0    0 -0.10006245486E-02  0.29915036190E-01  0.88580713371E+01  0.88581275518E+01  0.10000000000E-01 0. -1.
      611    1    3    3    0    0  0.47183164826E-02 -0.30585087069E-01  0.18167137793E+01  0.18170048613E+01  0.10000000000E-01 0.  1.
</event>
<event>
 7   0  0.6206631E-02  0.9118800E+02  0.7818608E-02  0.1180000E+00
       11   -1    0    0    0    0  0.00000000000E+00  0.00000000000E+00  0.11999999989E+02  0.12000000000E+02  0.51109989000E-03 0.  1.
     -623   -1    0    0    0    0  0.00000000000E+00  0.00000000000E+00  0.42561509872E-11  0.25126700000E+02  0.25126700000E+02 0. -1.
      622    2    1    2    0    0  0.59011422074E-02 -0.61893058829E-02  0.11945601854E+02  0.11946113247E+02  0.11020395657E+00 0.  0.
       11    1    1    2    0    0 -0.66187010320E-02  0.56262040816E-02  0.53179456584E-01  0.53886707095E-01  0.51109989000E-03 0.  1.
     -623    1    1    2    0    0  0.71755882467E-03  0.56310180131E-03  0.12186782026E-02  0.25126700046E+02  0.25126700000E+02 0. -1.
     -611    1    3    3    0    0  0.52326409788E-01 -0.18479877357E-01  0.81390281751E+01  0.81392235007E+01  0.10000000000E-01 0.  1.
      611    1    3    3    0    0 -0.46425267581E-01  0.12290571474E-01  0.38065736792E+01  0.38068897461E+01  0.10000000000E-01 0. -1.
</event>
<event>
 7   0  0.6206631E-02  0.9118800E+02  0.7818608E-02  0.1180000E+00
       11   -1    0    0    0    0  0.00000000000E+00  0.00000000000E+00  0.11999999989E+02  0.12000000000E+02  0.51109989000E-03 0.  1.
     -623   -1    0    0    0    0  0.00000000000E+00  0.00000000000E+00  0.42561509872E-11  0.25126700000E+02  0.25126700000E+02 0. -1.
      622    2    1    2    0    0  0.41345876909E-02 -0.15822068723E-01  0.11941547109E+02  0.11942365815E+02  0.13887575868E+00 0.  0.
       11    1    1    2    0    0 -0.13884049777E-02  0.10367278295E-01  0.56673954423E-01  0.57633379743E-01  0.51109989000E-03 0.  1.
     -623    1    1    2    0    0 -0.27461827132E-02  0.54547904278E-02  0.17789258369E-02  0.25126700805E+02  0.25126700000E+02 0. -1.
     -611    1    3    3    0    0 -0.28175339059E-01  0.33836797624E-01  0.94006570111E+01  0.94007654486E+01  0.10000000000E-01 0. -1.
      611    1    3    3    0    0  0.32309926750E-01 -0.49658866347E-01  0.25408900978E+01  0.25416003666E+01  0.10000000000E-01 0.  1.
</event>
<event>
 7   0  0.6206631E-02  0.9118800E+02  0.7818608E-02  0.1180000E+00
       11   -1    0    0    0    0  0.00000000000E+00  0.00000000000E+00  0.11999999989E+02  0.12000000000E+02  0.51109989000E-03 0.  1.
     -623   -1    0    0    0    0  0.00000000000E+00  0.00000000000E+00  0.42561509872E-11  0.25126700000E+02  0.25126700000E+02 0. -1.
      622    2    1    2    0    0 -0.36570959527E-01 -0.60990583035E-01  0.10427584922E+02  0.10428514032E+02  0.11966752510E+00 0.  0.
       11    1    1    2    0    0  0.40774257604E-01  0.56613796784E-01  0.15699355199E+01  0.15714851129E+01  0.51109989000E-03 0.  1.
     -623    1    1    2    0    0 -0.42032980762E-02  0.43767862516E-02  0.24795468404E-02  0.25126700855E+02  0.25126700000E+02 0. -1.
     -611    1    3    3    0    0  0.12248197228E-01 -0.83008155918E-01  0.66242349424E+01  0.66247738787E+01  0.10000000000E-01 0.  1.
      611    1    3    3    0    0 -0.48819156756E-01  0.22017572883E-01  0.38033499800E+01  0.38037401533E+01  0.10000000000E-01 0. -1.
</event>
<event>
 7   0  0.6206631E-02  0.9118800E+02  0.7818608E-02  0.1180000E+00
       11   -1    0    0    0    0  0.00000000000E+00  0.00000000000E+00  0.11999999989E+02  0.12000000000E+02  0.51109989000E-03 0.  1.
     -623   -1    0    0    0    0  0.00000000000E+00  0.00000000000E+00  0.42561509872E-11  0.25126700000E+02  0.25126700000E+02 0. -1.
      622    2    1    2    0    0  0.71964330201E-01  0.19715325417E+00  0.52164472482E+01  0.52221165255E+01  0.12300748683E+00 0.  0.
       11    1    1    2    0    0 -0.59937799055E-01 -0.20916275495E+00  0.67743827712E+01  0.67778760530E+01  0.51109989000E-03 0.  1.
     -623    1    1    2    0    0 -0.12026531146E-01  0.12009500785E-01  0.91699696440E-02  0.25126707421E+02  0.25126700000E+02 0. -1.
     -611    1    3    3    0    0  0.51209984276E-01  0.14715942922E+00  0.23702444240E+01  0.23753814409E+01  0.10000000000E-01 0. -1.
      611    1    3    3    0    0  0.20754345925E-01  0.49993824951E-01  0.28462028242E+01  0.28467350846E+01  0.10000000000E-01 0.  1.
</event>
<event>
 7   0  0.6206631E-02  0.9118800E+02  0.7818608E-02  0.1180000E+00
       11   -1    0    0    0    0  0.00000000000E+00  0.00000000000E+00  0.11999999989E+02  0.12000000000E+02  0.51109989000E-03 0. -1.
     -623   -1    0    0    0    0  0.00000000000E+00  0.00000000000E+00  0.42561509872E-11  0.25126700000E+02  0.25126700000E+02 0.  1.
      622    2    1    2    0    0  0.27427637979E+00 -0.67974844350E-01  0.66280259372E+01  0.66349320094E+01  0.10838280768E+00 0.  0.
       11    1    1    2    0    0 -0.30932899269E+00  0.43555382399E-01  0.53559245806E+01  0.53650265490E+01  0.51109989000E-03 0. -1.
     -623    1    1    2    0    0  0.35052612899E-01  0.24419461951E-01  0.16049471261E-01  0.25126741442E+02  0.25126700000E+02 0.  1.
     -611    1    3    3    0    0  0.20312697698E+00 -0.49412711314E-02  0.40019420772E+01  0.40071093539E+01  0.10000000000E-01 0. -1.
      611    1    3    3    0    0  0.71149402808E-01 -0.63033573218E-01  0.26260838601E+01  0.26278226555E+01  0.10000000000E-01 0.  1.
</event>
<event>
 7   0  0.6206631E-02  0.9118800E+02  0.7818608E-02  0.1180000E+00
       11   -1    0    0    0    0  0.00000000000E+00  0.00000000000E+00  0.11999999989E+02  0.12000000000E+02  0.51109989000E-03 0.  1.
     -623   -1    0    0    0    0  0.00000000000E+00  0.00000000000E+00  0.42561509872E-11  0.25126700000E+02  0.25126700000E+02 0.  1.
      622    2    1    2    0    0 -0.40276179619E-02 -0.32733465112E-02  0.11912000394E+02  0.11912342823E+02  0.90173273857E-01 0.  0.
       11    1    1    2    0    0 -0.25065133260E-01  0.17441177650E-01  0.82141899382E-01  0.87635657357E-01  0.51109989000E-03 0.  1.
     -623    1    1    2    0    0  0.29092751222E-01 -0.14167831139E-01  0.58576960005E-02  0.25126721519E+02  0.25126700000E+02 0.  1.
     -611    1    3    3    0    0  0.19084496806E-01  0.34654156527E-01  0.74068118274E+01  0.74069242318E+01  0.10000000000E-01 0.  1.
      611    1    3    3    0    0 -0.23112114768E-01 -0.37927503038E-01  0.45051885663E+01  0.45054185913E+01  0.10000000000E-01 0. -1.
</event>
<event>
 7   0  0.6206631E-02  0.9118800E+02  0.7818608E-02  0.1180000E+00
       11   -1    0    0    0    0  0.00000000000E+00  0.00000000000E+00  0.11999999989E+02  0.12000000000E+02  0.51109989000E-03 0.  1.
     -623   -1    0    0    0    0  0.00000000000E+00  0.00000000000E+00  0.42561509872E-11  0.25126700000E+02  0.25126700000E+02 0. -1.
      622    2    1    2    0    0 -0.16832496861E-01 -0.84296913381E-02  0.94144447455E+01  0.94146419366E+01  0.57952877735E-01 0.  0.
       11    1    1    2    0    0 -0.72028229606E-02  0.13015182044E-01  0.25853033029E+01  0.25853461480E+01  0.51109989000E-03 0.  1.
     -623    1    1    2    0    0  0.24035319822E-01 -0.45854907056E-02  0.25194065722E-03  0.25126711915E+02  0.25126700000E+02 0. -1.
     -611    1    3    3    0    0 -0.17972478745E-01  0.21124594349E-01  0.49815174492E+01  0.49816046968E+01  0.10000000000E-01 0.  1.
      611    1    3    3    0    0  0.11399818838E-02 -0.29554285687E-01  0.44329272963E+01  0.44330372398E+01  0.10000000000E-01 0. -1.
</event>
<event>
 7   0  0.6206631E-02  0.9118800E+02  0.7818608E-02  0.1180000E+00
       11   -1    0    0    0    0  0.00000000000E+00  0.00000000000E+00  0.11999999989E+02  0.12000000000E+02  0.51109989000E-03 0.  1.
     -623   -1    0    0    0    0  0.00000000000E+00  0.00000000000E+00  0.42561509872E-11  0.25126700000E+02  0.25126700000E+02 0. -1.
      622    2    1    2    0    0 -0.39218895638E-01  0.22492106337E-02  0.77288209135E+01  0.77296049479E+01  0.10284336403E+00 0.  0.
       11    1    1    2    0    0  0.30070623932E-01  0.48792969375E-02  0.42702836666E+01  0.42703923595E+01  0.51109989000E-03 0.  1.
     -623    1    1    2    0    0  0.91482717058E-02 -0.71285075712E-02  0.89540901805E-03  0.25126702693E+02  0.25126700000E+02 0. -1.
     -611    1    3    3    0    0  0.23202526269E-01 -0.28620236376E-01  0.33714429743E+01  0.33716591174E+01  0.10000000000E-01 0.  1.
      611    1    3    3    0    0 -0.62421421907E-01  0.30869447010E-01  0.43573779392E+01  0.43579458305E+01  0.10000000000E-01 0. -1.
</event>
<event>
 7   0  0.6206631E-02  0.9118800E+02  0.7818608E-02  0.1180000E+00
       11   -1    0    0    0    0  0.00000000000E+00  0.00000000000E+00  0.11999999989E+02  0.12000000000E+02  0.51109989000E-03 0. -1.
     -623   -1    0    0    0    0  0.00000000000E+00  0.00000000000E+00  0.42561509872E-11  0.25126700000E+02  0.25126700000E+02 0.  1.
      622    2    1    2    0    0  0.90878157748E-01  0.62295021509E-01  0.10398135416E+02  0.10399157406E+02  0.95473189304E-01 0.  0.
       11    1    1    2    0    0 -0.13677030175E+00 -0.50918981919E-01  0.15941303759E+01  0.16007969186E+01  0.51109989000E-03 0. -1.
     -623    1    1    2    0    0  0.45892143997E-01 -0.11376039590E-01  0.77341974300E-02  0.25126745675E+02  0.25126700000E+02 0.  1.
     -611    1    3    3    0    0  0.10267748123E+00  0.71582755413E-01  0.95814667904E+01  0.95822895287E+01  0.10000000000E-01 0. -1.
      611    1    3    3    0    0 -0.11799323485E-01 -0.92877339045E-02  0.81666862537E+00  0.81686787775E+00  0.10000000000E-01 0.  1.
</event>
<event>
 7   0  0.6206631E-02  0.9118800E+02  0.7818608E-02  0.1180000E+00
       11   -1    0    0    0    0  0.00000000000E+00  0.00000000000E+00  0.11999999989E+02  0.12000000000E+02  0.51109989000E-03 0. -1.
     -623   -1    0    0    0    0  0.00000000000E+00  0.00000000000E+00  0.42561509872E-11  0.25126700000E+02  0.25126700000E+02 0. -1.
      622    2    1    2    0    0  0.68597703949E-02  0.15433684747E-01  0.11668605086E+02  0.11669133734E+02  0.10978246007E+00 0.  0.
       11    1    1    2    0    0 -0.74701196023E-02 -0.61326076157E-02  0.33072294056E+00  0.33086452847E+00  0.51109989000E-03 0. -1.
     -623    1    1    2    0    0  0.61034920740E-03 -0.93010771310E-02  0.67196267425E-03  0.25126701738E+02  0.25126700000E+02 0. -1.
     -611    1    3    3    0    0  0.47395522640E-01  0.38882368993E-01  0.57714752699E+01  0.57718095053E+01  0.10000000000E-01 0. -1.
      611    1    3    3    0    0 -0.40535752245E-01 -0.23448684247E-01  0.58971298160E+01  0.58973242284E+01  0.10000000000E-01 0. -1.
</event>
<event>
 7   0  0.6206631E-02  0.9118800E+02  0.7818608E-02  0.1180000E+00
       11   -1    0    0    0    0  0.00000000000E+00  0.00000000000E+00  0.11999999989E+02  0.12000000000E+02  0.51109989000E-03 0.  1.
     -623   -1    0    0    0    0  0.00000000000E+00  0.00000000000E+00  0.42561509872E-11  0.25126700000E+02  0.25126700000E+02 0.  1.
      622    2    1    2    0    0  0.83140330209E-02  0.11157780408E-01  0.11801735822E+02  0.11802131013E+02  0.95574154621E-01 0.  0.
       11    1    1    2    0    0 -0.37273424268E-02  0.30818392899E-02  0.19780475212E+00  0.19786452942E+00  0.51109989000E-03 0.  1.
     -623    1    1    2    0    0 -0.45866905941E-02 -0.14239619698E-01  0.45941523696E-03  0.25126704458E+02  0.25126700000E+02 0.  1.
     -611    1    3    3    0    0  0.38348523122E-01  0.14369954443E-01  0.10156843938E+02  0.10156931421E+02  0.10000000000E-01 0.  1.
      611    1    3    3    0    0 -0.30034490101E-01 -0.32121740348E-02  0.16448918836E+01  0.16451995920E+01  0.10000000000E-01 0. -1.
</event>
<event>
 7   0  0.6206631E-02  0.9118800E+02  0.7818608E-02  0.1180000E+00
       11   -1    0    0    0    0  0.00000000000E+00  0.00000000000E+00  0.11999999989E+02  0.12000000000E+02  0.51109989000E-03 0. -1.
     -623   -1    0    0    0    0  0.00000000000E+00  0.00000000000E+00  0.42561509872E-11  0.25126700000E+02  0.25126700000E+02 0.  1.
      622    2    1    2    0    0  0.32333198587E-01 -0.10863312827E-01  0.70410260923E+01  0.70418276204E+01  0.10061985667E+00 0.  0.
       11    1    1    2    0    0 -0.89522520316E-01  0.45121196449E-01  0.49570702245E+01  0.49580838714E+01  0.51109989000E-03 0. -1.
     -623    1    1    2    0    0  0.57189321728E-01 -0.34257883622E-01  0.19036722988E-02  0.25126788508E+02  0.25126700000E+02 0.  1.
     -611    1    3    3    0    0 -0.22152702589E-01  0.28385716245E-01  0.29762927678E+01  0.29765273610E+01  0.10000000000E-01 0. -1.
      611    1    3    3    0    0  0.54485901177E-01 -0.39249029072E-01  0.40647333245E+01  0.40653002594E+01  0.10000000000E-01 0.  1.
</event>
<event>
 7   0  0.6206631E-02  0.9118800E+02  0.7818608E-02  0.1180000E+00
       11   -1    0    0    0    0  0.00000000000E+00  0.00000000000E+00  0.11999999989E+02  0.12000000000E+02  0.51109989000E-03 0.  1.
     -623   -1    0    0    0    0  0.00000000000E+00  0.00000000000E+00  0.42561509872E-11  0.25126700000E+02  0.25126700000E+02 0. -1.
      622    2    1    2    0    0 -0.16553081585E-02  0.18341408543E-02  0.11983738890E+02  0.11984057909E+02  0.87407581245E-01 0.  0.
       11    1    1    2    0    0 -0.21797346909E-03 -0.23715428602E-02  0.15754832425E-01  0.15942010407E-01  0.51109989000E-03 0.  1.
     -623    1    1    2    0    0  0.18732816276E-02  0.53740200589E-03  0.50626706335E-03  0.25126700081E+02  0.25126700000E+02 0. -1.
     -611    1    3    3    0    0  0.16673493850E-01  0.35915036948E-01  0.37577261866E+01  0.37579481088E+01  0.10000000000E-01 0. -1.
      611    1    3    3    0    0 -0.18328802008E-01 -0.34080896094E-01  0.82260127031E+01  0.82261098001E+01  0.10000000000E-01 0.  1.
</event>
<event>
 7   0  0.6206631E-02  0.9118800E+02  0.7818608E-02  0.1180000E+00
       11   -1    0    0    0    0  0.00000000000E+00  0.00000000000E+00  0.11999999989E+02  0.12000000000E+02  0.51109989000E-03 0.  1.
     -623   -1    0    0    0    0  0.00000000000E+00  0.00000000000E+00  0.42561509872E-11  0.25126700000E+02  0.25126700000E+02 0.  1.
      622    2    1    2    0    0 -0.30145486750E-02 -0.31682236309E-02  0.11992348027E+02  0.11992789304E+02  0.10278595240E+00 0.  0.
       11    1    1    2    0    0  0.32662824957E-02  0.16096799083E-02  0.62025742115E-02  0.72106047410E-02  0.51109989000E-03 0.  1.
     -623    1    1    2    0    0 -0.25173382073E-03  0.15585437226E-02  0.14493875368E-02  0.25126700091E+02  0.25126700000E+02 0.  1.
     -611    1    3    3    0    0 -0.14975266174E-01 -0.28068961780E-01  0.13879400761E+01  0.13883406571E+01  0.10000000000E-01 0. -1.
      611    1    3    3    0    0  0.11960717500E-01  0.24900738149E-01  0.10604407951E+02  0.10604448647E+02  0.10000000000E-01 0.  1.
</event>
<event>
 7   0  0.6206631E-02  0.9118800E+02  0.7818608E-02  0.1180000E+00
       11   -1    0    0    0    0  0.00000000000E+00  0.00000000000E+00  0.11999999989E+02  0.12000000000E+02  0.51109989000E-03 0.  1.
     -623   -1    0    0    0    0  0.00000000000E+00  0.00000000000E+00  0.42561509872E-11  0.25126700000E+02  0.25126700000E+02 0. -1.
      622    2    1    2    0    0  0.83145719215E-03  0.57677941300E-02  0.11345389987E+02  0.11345773581E+02  0.93114158796E-01 0.  0.
       11    1    1    2    0    0 -0.67927889422E-02 -0.10339199813E-02  0.65418897962E+00  0.65422526186E+00  0.51109989000E-03 0.  1.
     -623    1    1    2    0    0  0.59613317500E-02 -0.47338741488E-02  0.42102247187E-03  0.25126701157E+02  0.25126700000E+02 0. -1.
     -611    1    3    3    0    0 -0.34740604544E-01 -0.24634041542E-01  0.65046019300E+01  0.65047490354E+01  0.10000000000E-01 0. -1.
      611    1    3    3    0    0  0.35572061736E-01  0.30401835672E-01  0.48407880569E+01  0.48410245460E+01  0.10000000000E-01 0.  1.
</event>
<event>
 7   0  0.6206631E-02  0.9118800E+02  0.7818608E-02  0.1180000E+00
       11   -1    0    0    0    0  0.00000000000E+00  0.00000000000E+00  0.11999999989E+02  0.12000000000E+02  0.51109989000E-03 0.  1.
     -623   -1    0    0    0    0  0.00000000000E+00  0.00000000000E+00  0.42561509872E-11  0.25126700000E+02  0.25126700000E+02 0. -1.
      622    2    1    2    0    0 -0.34733221262E-02 -0.37691809726E-03  0.11864673052E+02  0.11865106647E+02  0.10137509837E+00 0.  0.
       11    1    1    2    0    0  0.37143024308E-02 -0.87723611683E-03  0.13483834700E+00  0.13489331574E+00  0.51109989000E-03 0.  1.
     -623    1    1    2    0    0 -0.24098030465E-03  0.12541542141E-02  0.48859017945E-03  0.25126700037E+02  0.25126700000E+02 0. -1.
     -611    1    3    3    0    0  0.19837550849E-01 -0.22347844465E-01  0.10405722165E+02  0.10405769877E+02  0.10000000000E-01 0.  1.
      611    1    3    3    0    0 -0.23310872975E-01  0.21970926368E-01  0.14589508865E+01  0.14593367698E+01  0.10000000000E-01 0. -1.
</event>
<event>
 7   0  0.6206631E-02  0.9118800E+02  0.7818608E-02  0.1180000E+00
       11   -1    0    0    0    0  0.00000000000E+00  0.00000000000E+00  0.11999999989E+02  0.12000000000E+02  0.51109989000E-03 0. -1.
     -623   -1    0    0    0    0  0.00000000000E+00  0.00000000000E+00  0.42561509872E-11  0.25126700000E+02  0.25126700000E+02 0.  1.
      622    2    1    2    0    0 -0.35838452364E-01  0.17568788524E-01  0.10432440786E+02  0.10433228732E+02  0.12185224782E+00 0.  0.
       11    1    1    2    0    0  0.18373350014E-01  0.31528719214E-01  0.15662920792E+01  0.15667171980E+01  0.51109989000E-03 0. -1.
     -623    1    1    2    0    0  0.17465102350E-01 -0.49097507738E-01  0.12671242236E-02  0.25126754070E+02  0.25126700000E+02 0.  1.
     -611    1    3    3    0    0 -0.49090436232E-01 -0.18822033927E-01  0.91664423884E+01  0.91665986167E+01  0.10000000000E-01 0. -1.
      611    1    3    3    0    0  0.13251983869E-01  0.36390822451E-01  0.12659983973E+01  0.12666301153E+01  0.10000000000E-01 0.  1.
</event>
<event>
 7   0  0.6206631E-02  0.9118800E+02  0.7818608E-02  0.1180000E+00
       11   -1    0    0    0    0  0.00000000000E+00  0.00000000000E+00  0.11999999989E+02  0.12000000000E+02  0.51109989000E-03 0.  1.
     -623   -1    0    0    0    0  0.00000000000E+00  0.00000000000E+00  0.42561509872E-11  0.25126700000E+02  0.25126700000E+02 0. -1.
      622    2    1    2    0    0  0.13050551185E-01  0.45914887036E-02  0.11978561382E+02  0.11979030455E+02  0.10510210509E+00 0.  0.
       11    1    1    2    0    0  0.79294034587E-02  0.68284150433E-02  0.18151387232E-01  0.20957976353E-01  0.51109989000E-03 0.  1.
     -623    1    1    2    0    0 -0.20979954644E-01 -0.11419903747E-01  0.32872198293E-02  0.25126711569E+02  0.25126700000E+02 0. -1.
     -611    1    3    3    0    0  0.26863516614E-01 -0.40180368682E-01  0.84458928825E+01  0.84460370999E+01  0.10000000000E-01 0. -1.
      611    1    3    3    0    0 -0.13812965429E-01  0.44771857386E-01  0.35326684995E+01  0.35329933547E+01  0.10000000000E-01 0.  1.
</event>
<event>
 7   0  0.6206631E-02  0.9118800E+02  0.7818608E-02  0.1180000E+00
       11   -1    0    0    0    0  0.00000000000E+00  0.00000000000E+00  0.11999999989E+02  0.12000000000E+02  0.51109989000E-03 0.  1.
     -623   -1    0    0    0    0  0.00000000000E+00  0.00000000000E+00  0.42561509872E-11  0.25126700000E+02  0.25126700000E+02 0.  1.
      622    2    1    2    0    0 -0.20325666195E-01  0.45474784934E-02  0.64675786862E+01  0.64685467535E+01  0.10995102300E+00 0.  0.
       11    1    1    2    0    0  0.18857605568E-01  0.38233503237E-01  0.55312524500E+01  0.55314167568E+01  0.51109989000E-03 0.  1.
     -623    1    1    2    0    0  0.14680606271E-02 -0.42780981731E-01  0.11688528716E-02  0.25126736490E+02  0.25126700000E+02 0.  1.
     -611    1    3    3    0    0  0.18950388505E-01  0.40447138933E-01  0.44703856246E+01  0.44706199482E+01  0.10000000000E-01 0.  1.
      611    1    3    3    0    0 -0.39276054700E-01 -0.35899660439E-01  0.19971930616E+01  0.19979268053E+01  0.10000000000E-01 0. -1.
</event>
<event>
 7   0  0.6206631E-02  0.9118800E+02  0.7818608E-02  0.1180000E+00
       11   -1    0    0    0    0  0.00000000000E+00  0.00000000000E+00  0.11999999989E+02  0.12000000000E+02  0.51109989000E-03 0. -1.
     -623   -1    0    0    0    0  0.00000000000E+00  0.00000000000E+00  0.42561509872E-11  0.25126700000E+02  0.25126700000E+02 0. -1.
      622    2    1    2    0    0  0.24575704762E-01  0.13480669640E-01  0.92872054395E+01  0.92878936553E+01  0.10953530902E+00 0.  0.
       11    1    1    2    0    0 -0.34721517466E-01 -0.11935932260E-01  0.27118556469E+01  0.27121042312E+01  0.51109989000E-03 0. -1.
     -623    1    1    2    0    0  0.10145812703E-01 -0.15447373800E-02  0.93890270439E-03  0.25126702113E+02  0.25126700000E+02 0. -1.
     -611    1    3    3    0    0  0.25546434227E-03 -0.34478256655E-01  0.12852401018E+01  0.12857413950E+01  0.10000000000E-01 0.  1.
      611    1    3    3    0    0  0.24320240420E-01  0.47958926295E-01  0.80019653377E+01  0.80021522604E+01  0.10000000000E-01 0. -1.
</event>
<event>
 7   0  0.6206631E-02  0.9118800E+02  0.7818608E-02  0.1180000E+00
       11   -1    0    0    0    0  0.00000000000E+00  0.00000000000E+00  0.11999999989E+02  0.12000000000E+02  0.51109989000E-03 0. -1.
     -623   -1    0    0    0    0  0.00000000000E+00  0.00000000000E+00  0.42561509872E-11  0.25126700000E+02  0.25126700000E+02 0. -1.
      622    2    1    2    0    0 -0.60773407066E-01 -0.14138134899E+00  0.10448817524E+02  0.10450709021E+02  0.12589404040E+00 0.  0.
       11    1    1    2    0    0  0.40103040539E-01  0.11026558566E+00  0.15448129270E+01  0.15492624031E+01  0.51109989000E-03 0. -1.
     -623    1    1    2    0    0  0.20670366527E-01  0.31115763332E-01  0.63695384752E-02  0.25126728576E+02  0.25126700000E+02 0. -1.
     -611    1    3    3    0    0 -0.42141006253E-01 -0.72095163096E-02  0.10599100380E+01  0.10608190846E+01  0.10000000000E-01 0.  1.
      611    1    3    3    0    0 -0.18632400813E-01 -0.13417183268E+00  0.93889074857E+01  0.93898899366E+01  0.10000000000E-01 0. -1.
</event>
<event>
 7   0  0.6206631E-02  0.9118800E+02  0.7818608E-02  0.1180000E+00
       11   -1    0    0    0    0  0.00000000000E+00  0.00000000000E+00  0.11999999989E+02  0.12000000000E+02  0.51109989000E-03 0. -1.
     -623   -1    0    0    0    0  0.00000000000E+00  0.00000000000E+00  0.42561509872E-11  0.25126700000E+02  0.25126700000E+02 0. -1.
      622    2    1    2    0    0 -0.15473528015E-01  0.22924437595E+00  0.25507199119E+01  0.25619731579E+01  0.68862027974E-01 0.  0.
       11    1    1    2    0    0  0.63536122666E-01 -0.24134186274E+00  0.94346735444E+01  0.94379737171E+01  0.51109989000E-03 0. -1.
     -623    1    1    2    0    0 -0.48062594651E-01  0.12097486787E-01  0.14606532768E-01  0.25126753125E+02  0.25126700000E+02 0. -1.
     -611    1    3    3    0    0 -0.13761136515E-02  0.20877886754E+00  0.23804063558E+01  0.23895658450E+01  0.10000000000E-01 0.  1.
      611    1    3    3    0    0 -0.14097414364E-01  0.20465508414E-01  0.17031355616E+00  0.17240731289E+00  0.10000000000E-01 0.  1.
</event>
<event>
 7   0  0.6206631E-02  0.9118800E+02  0.7818608E-02  0.1180000E+00
       11   -1    0    0    0    0  0.00000000000E+00  0.00000000000E+00  0.11999999989E+02  0.12000000000E+02  0.51109989000E-03 0. -1.
     -623   -1    0    0    0    0  0.00000000000E+00  0.00000000000E+00  0.42561509872E-11  0.25126700000E+02  0.25126700000E+02 0. -1.
      622    2    1    2    0    0  0.59394628873E-03 -0.11699990601E-01  0.11129614937E+02  0.11130226128E+02  0.11605072160E+00 0.  0.
       11    1    1    2    0    0  0.18327361844E-01  0.26476677244E-01  0.86916593270E+00  0.86976237353E+00  0.51109989000E-03 0. -1.
     -623    1    1    2    0    0 -0.18921308133E-01 -0.14776686643E-01  0.12191196411E-02  0.25126711499E+02  0.25126700000E+02 0. -1.
     -611    1    3    3    0    0  0.39255675911E-01 -0.24786535713E-01  0.22009877657E+01  0.22015000626E+01  0.10000000000E-01 0.  1.
      611    1    3    3    0    0 -0.38661729622E-01  0.13086545112E-01  0.89286271710E+01  0.89287260651E+01  0.10000000000E-01 0. -1.
</event>
<event>
 7   0  0.6206631E-02  0.9118800E+02  0.7818608E-02  0.1180000E+00
       11   -1    0    0    0    0  0.00000000000E+00  0.00000000000E+00  0.11999999989E+02  0.12000000000E+02  0.51109989000E-03 0.  1.
     -623   -1    0    0    0    0  0.00000000000E+00  0.00000000000E+00  0.42561509872E-11  0.25126700000E+02  0.25126700000E+02 0. -1.
      622    2    1    2    0    0 -0.68306997140E-04  0.98006715398E-03  0.11931598253E+02  0.11932287580E+02  0.12825388296E+00 0.  0.
       11    1    1    2    0    0 -0.16918018265E-02  0.98167830773E-03  0.67682084339E-01  0.67712271039E-01  0.51109989000E-03 0.  1.
     -623    1    1    2    0    0  0.17601088236E-02 -0.19617454617E-02  0.71965147439E-03  0.25126700149E+02  0.25126700000E+02 0. -1.
     -611    1    3    3    0    0 -0.37181313822E-01  0.75261382528E-02  0.10700779772E+02  0.10700851687E+02  0.10000000000E-01 0.  1.
      611    1    3    3    0    0  0.37113006825E-01 -0.65460710988E-02  0.12308184809E+01  0.12314358933E+01  0.10000000000E-01 0. -1.
</event>
<event>
 7   0  0.6206631E-02  0.9118800E+02  0.7818608E-02  0.1180000E+00
       11   -1    0    0    0    0  0.00000000000E+00  0.00000000000E+00  0.11999999989E+02  0.12000000000E+02  0.51109989000E-03 0. -1.
     -623   -1    0    0    0    0  0.00000000000E+00  0.00000000000E+00  0.42561509872E-11  0.25126700000E+02  0.25126700000E+02 0. -1.
      622    2    1    2    0    0 -0.16380451557E-02 -0.80415682727E-02  0.11601329506E+02  0.11602343498E+02  0.15316985037E+00 0.  0.
       11    1    1    2    0    0  0.10903138487E-01  0.15943580432E-01  0.39718380414E+00  0.39765350706E+00  0.51109989000E-03 0. -1.
     -623    1    1    2    0    0 -0.92650933317E-02 -0.79020121592E-02  0.14866793610E-02  0.25126702995E+02  0.25126700000E+02 0. -1.
     -611    1    3    3    0    0  0.19144072058E-01 -0.12017205736E-01  0.30812486541E+00  0.30911460886E+00  0.10000000000E-01 0. -1.
      611    1    3    3    0    0 -0.20782117213E-01  0.39756374634E-02  0.11293204640E+02  0.11293228889E+02  0.10000000000E-01 0.  1.
</event>
<event>
 7   0  0.6206631E-02  0.9118800E+02  0.7818608E-02  0.1180000E+00
       11   -1    0    0    0    0  0.00000000000E+00  0.00000000000E+00  0.11999999989E+02  0.12000000000E+02  0.51109989000E-03 0. -1.
     -623   -1    0    0    0    0  0.00000000000E+00  0.00000000000E+00  0.42561509872E-11  0.25126700000E+02  0.25126700000E+02 0. -1.
      622    2    1    2    0    0 -0.19615826301E-02 -0.29132452198E-02  0.11925047736E+02  0.11925492251E+02  0.10290565118E+00 0.  0.
       11    1    1    2    0    0 -0.12297869752E-02  0.28419750180E-02  0.74441408379E-01  0.74507541247E-01  0.51109989000E-03 0. -1.
     -623    1    1    2    0    0  0.31913696053E-02  0.71270201844E-04  0.51084432479E-03  0.25126700208E+02  0.25126700000E+02 0. -1.
     -611    1    3    3    0    0 -0.24860888777E-01 -0.32745573063E-01  0.24553095178E+01  0.24556740754E+01  0.10000000000E-01 0. -1.
      611    1    3    3    0    0  0.22899306147E-01  0.29832327843E-01  0.94697382185E+01  0.94698181753E+01  0.10000000000E-01 0. -1.
</event>
<event>
 7   0  0.6206631E-02  0.9118800E+02  0.7818608E-02  0.1180000E+00
       11   -1    0    0    0    0  0.00000000000E+00  0.00000000000E+00  0.11999999989E+02  0.12000000000E+02  0.51109989000E-03 0.  1.
     -623   -1    0    0    0    0  0.00000000000E+00  0.00000000000E+00  0.42561509872E-11  0.25126700000E+02  0.25126700000E+02 0. -1.
      622    2    1    2    0    0  0.36402732492E-01  0.12013868403E-01  0.11087092707E+02  0.11088042217E+02  0.13995007396E+00 0.  0.
       11    1    1    2    0    0 -0.35648594135E-01 -0.10829943184E-01  0.91119616405E+00  0.91195768572E+00  0.51109989000E-03 0.  1.
     -623    1    1    2    0    0 -0.75413835668E-03 -0.11839252197E-02  0.17111183847E-02  0.25126700097E+02  0.25126700000E+02 0. -1.
     -611    1    3    3    0    0 -0.19782092800E-01 -0.18361479891E-01  0.87715372031E+01  0.87715844282E+01  0.10000000000E-01 0.  1.
      611    1    3    3    0    0  0.56184825293E-01  0.30375348295E-01  0.23155555035E+01  0.23164577886E+01  0.10000000000E-01 0. -1.
</event>
<event>
 7   0  0.6206631E-02  0.9118800E+02  0.7818608E-02  0.1180000E+00
       11   -1    0    0    0    0  0.00000000000E+00  0.00000000000E+00  0.11999999989E+02  0.12000000000E+02  0.51109989000E-03 0. -1.
     -623   -1    0    0    0    0  0.00000000000E+00  0.00000000000E+00  0.42561509872E-11  0.25126700000E+02  0.25126700000E+02 0. -1.
      622    2    1    2    0    0  0.27996050489E-02  0.28461898721E-02  0.42828576474E+01  0.42839103388E+01  0.94880053207E-01 0.  0.
       11    1    1    2    0    0 -0.16658259824E-02 -0.19187752373E-02  0.77160891611E+01  0.77160895964E+01  0.51109989000E-03 0. -1.
     -623    1    1    2    0    0 -0.11337790666E-02 -0.92741463476E-03  0.10531806154E-02  0.25126700065E+02  0.25126700000E+02 0. -1.
     -611    1    3    3    0    0 -0.24926473179E-01 -0.36642241878E-01  0.18974834113E+01  0.18980272072E+01  0.10000000000E-01 0. -1.
      611    1    3    3    0    0  0.27726078228E-01  0.39488431750E-01  0.23853742361E+01  0.23858831316E+01  0.10000000000E-01 0.  1.
</event>
<event>
 7   0  0.6206631E-02  0.9118800E+02  0.7818608E-02  0.1180000E+00
       11   -1    0    0    0    0  0.00000000000E+00  0.00000000000E+00  0.11999999989E+02  0.12000000000E+02  0.51109989000E-03 0.  1.
     -623   -1    0    0    0    0  0.00000000000E+00  0.00000000000E+00  0.42561509872E-11  0.25126700000E+02  0.25126700000E+02 0.  1.
      622    2    1    2    0    0  0.18720748394E-01  0.15955591907E-01  0.11518549663E+02  0.11518947415E+02  0.92510427013E-01 0.  0.
       11    1    1    2    0    0 -0.33865244034E-02 -0.32424999276E-01  0.47993618357E+00  0.48104246242E+00  0.51109989000E-03 0.  1.
     -623    1    1    2    0    0 -0.15334223990E-01  0.16469407369E-01  0.15141428050E-02  0.25126710122E+02  0.25126700000E+02 0.  1.
     -611    1    3    3    0    0 -0.78104858430E-03  0.34479037088E-01  0.10290070280E+02  0.10290132933E+02  0.10000000000E-01 0.  1.
      611    1    3    3    0    0  0.19501796978E-01 -0.18523445181E-01  0.12284793825E+01  0.12288144820E+01  0.10000000000E-01 0. -1.
</event>
<event>
 7   0  0.6206631E-02  0.9118800E+02  0.7818608E-02  0.1180000E+00
       11   -1    0    0    0    0  0.00000000000E+00  0.00000000000E+00  0.11999999989E+02  0.12000000000E+02  0.51109989000E-03 0. -1.
     -623   -1    0    0    0    0  0.00000000000E+00  0.00000000000E+00  0.42561509872E-11  0.25126700000E+02  0.25126700000E+02 0.  1.
      622    2    1    2    0    0 -0.20159624315E-01 -0.12621204989E-01  0.96144663624E+01  0.96149893820E+01  0.97425243571E-01 0.  0.
       11    1    1    2    0    0  0.20770220249E-01  0.12811778276E-01  0.23848856921E+01  0.23850106015E+01  0.51109989000E-03 0. -1.
     -623    1    1    2    0    0 -0.61059593376E-03 -0.19057328739E-03  0.64793468358E-03  0.25126700016E+02  0.25126700000E+02 0.  1.
     -611    1    3    3    0    0 -0.52468105308E-01 -0.29988228447E-01  0.65725997227E+01  0.65728851588E+01  0.10000000000E-01 0.  1.
      611    1    3    3    0    0  0.32308480992E-01  0.17367023458E-01  0.30418666397E+01  0.30421042232E+01  0.10000000000E-01 0. -1.
</event>
<event>
 6   0  0.6206631E-02  0.9118800E+02  0.7818608E-02  0.1180000E+00
       11   -1    0    0    0    0  0.00000000000E+00  0.00000000000E+00  0.11999999989E+02  0.12000000000E+02  0.51109989000E-03 0.  1.
     -623   -1    0    0    0    0  0.00000000000E+00  0.00000000000E+00  0.42561509872E-11  0.25126700000E+02  0.25126700000E+02 0. -1.
       11    1    1    2    0    0 -0.17030317734E-01 -0.11941372553E-01  0.32490867012E+00  0.32557415936E+00  0.51109989000E-03 0.  1.
     -623    1    1    2    0    0 -0.13012367662E-02  0.28026842765E-02  0.24381394489E-02  0.25126700308E+02  0.25126700000E+02 0. -1.
     -611    1    1    2    0    0 -0.56501271832E-01 -0.17663406435E-01  0.96494963503E+01  0.96496831142E+01  0.10000000000E-01 0.  1.
      611    1    1    2    0    0  0.74832826332E-01  0.26802094711E-01  0.20231568292E+01  0.20247424181E+01  0.10000000000E-01 0. -1.
</event>
<event>
 7   0  0.6206631E-02  0.9118800E+02  0.7818608E-02  0.1180000E+00
       11   -1    0    0    0    0  0.00000000000E+00  0.00000000000E+00  0.11999999989E+02  0.12000000000E+02  0.51109989000E-03 0. -1.
     -623   -1    0    0    0    0  0.00000000000E+00  0.00000000000E+00  0.42561509872E-11  0.25126700000E+02  0.25126700000E+02 0.  1.
      622    2    1    2    0    0  0.57198130839E-04  0.89444152550E-03  0.11997199270E+02  0.11997409646E+02  0.71042924390E-01 0.  0.
       11    1    1    2    0    0 -0.87386352748E-03 -0.11727991561E-02  0.20759298459E-02  0.25903287780E-02  0.51109989000E-03 0. -1.
     -623    1    1    2    0    0  0.81666539664E-03  0.27835763058E-03  0.72478975896E-03  0.25126700025E+02  0.25126700000E+02 0.  1.
     -611    1    3    3    0    0 -0.46572251438E-02 -0.22323177333E-01  0.10158969576E+02  0.10159000092E+02  0.10000000000E-01 0. -1.
      611    1    3    3    0    0  0.47144232747E-02  0.23217618858E-01  0.18382296935E+01  0.18384095544E+01  0.10000000000E-01 0.  1.
</event>
<event>
 7   0  0.6206631E-02  0.9118800E+02  0.7818608E-02  0.1180000E+00
       11   -1    0    0    0    0  0.00000000000E+00  0.00000000000E+00  0.11999999989E+02  0.12000000000E+02  0.51109989000E-03 0. -1.
     -623   -1    0    0    0    0  0.00000000000E+00  0.00000000000E+00  0.42561509872E-11  0.25126700000E+02  0.25126700000E+02 0.  1.
      622    2    1    2    0    0 -0.31916111679E-02 -0.97028009141E-02  0.11718519948E+02  0.11719002637E+02  0.10587117494E+00 0.  0.
       11    1    1    2    0    0  0.10679285733E-01 -0.13810995726E-01  0.28044187297E+00  0.28098522396E+00  0.51109989000E-03 0. -1.
     -623    1    1    2    0    0 -0.74876745647E-02  0.23513796640E-01  0.10381685089E-02  0.25126712139E+02  0.25126700000E+02 0.  1.
     -611    1    3    3    0    0 -0.26695045107E-01 -0.28128111485E-01  0.18542861727E+01  0.18547185842E+01  0.10000000000E-01 0.  1.
      611    1    3    3    0    0  0.23503433939E-01  0.18425310571E-01  0.98642337749E+01  0.98642840526E+01  0.10000000000E-01 0. -1.
</event>
<event>
 7   0  0.6206631E-02  0.9118800E+02  0.7818608E-02  0.1180000E+00
       11   -1    0    0    0    0  0.00000000000E+00  0.00000000000E+00  0.11999999989E+02  0.12000000000E+02  0.51109989000E-03 0.  1.
     -623   -1    0    0    0    0  0.00000000000E+00  0.00000000000E+00  0.42561509872E-11  0.25126700000E+02  0.25126700000E+02 0. -1.
      622    2    1    2    0    0  0.82781033232E-02 -0.80719554152E-02  0.11623354910E+02  0.11623738616E+02  0.93735575085E-01 0.  0.
       11    1    1    2    0    0 -0.63594472653E-03  0.98440128369E-02  0.37613047382E+00  0.37626015411E+00  0.51109989000E-03 0.  1.
     -623    1    1    2    0    0 -0.76421585967E-02 -0.17720574217E-02  0.51460499782E-03  0.25126701230E+02  0.25126700000E+02 0. -1.
     -611    1    3    3    0    0  0.19810681990E-01  0.48577231319E-02  0.70601810462E+00  0.70638348271E+00  0.10000000000E-01 0. -1.
      611    1    3    3    0    0 -0.11532578667E-01 -0.12929678547E-01  0.10917336806E+02  0.10917355133E+02  0.10000000000E-01 0.  1.
</event>
<event>
 7   0  0.6206631E-02  0.9118800E+02  0.7818608E-02  0.1180000E+00
       11   -1    0    0    0    0  0.00000000000E+00  0.00000000000E+00  0.11999999989E+02  0.12000000000E+02  0.51109989000E-03 0. -1.
     -623   -1    0    0    0    0  0.00000000000E+00  0.00000000000E+00  0.42561509872E-11  0.25126700000E+02  0.25126700000E+02 0.  1.
      622    2    1    2    0    0  0.82909945054E-02  0.51559666733E-03  0.11561200030E+02  0.11561934377E+02  0.13004382180E+00 0.  0.
       11    1    1    2    0    0 -0.11786244293E-01  0.10073718269E-02  0.43790527634E+00  0.43806531776E+00  0.51109989000E-03 0. -1.
     -623    1    1    2    0    0  0.34952497881E-02 -0.15229684942E-02  0.89468262185E-03  0.25126700305E+02  0.25126700000E+02 0.  1.
     -611    1    3    3    0    0  0.64693971082E-01  0.18703209906E-01  0.50906975915E+01  0.50911528250E+01  0.10000000000E-01 0. -1.
      611    1    3    3    0    0 -0.56402976576E-01 -0.18187613239E-01  0.64705024387E+01  0.64707815520E+01  0.10000000000E-01 0.  1.
</event>
<event>
 7   0  0.6206631E-02  0.9118800E+02  0.7818608E-02  0.1180000E+00
       11   -1    0    0    0    0  0.00000000000E+00  0.00000000000E+00  0.11999999989E+02  0.12000000000E+02  0.51109989000E-03 0.  1.
     -623   -1    0    0    0    0  0.00000000000E+00  0.00000000000E+00  0.42561509872E-11  0.25126700000E+02  0.25126700000E+02 0. -1.
      622    2    1    2    0    0 -0.18453932280E-01  0.20457924413E-01  0.11366811702E+02  0.11367776524E+02  0.14551892854E+00 0.  0.
       11    1    1    2    0    0  0.19432190998E-01 -0.14898937674E-01  0.63174822483E+00  0.63222280028E+00  0.51109989000E-03 0.  1.
     -623    1    1    2    0    0 -0.97825871851E-03 -0.55589867389E-02  0.14400618933E-02  0.25126700675E+02  0.25126700000E+02 0. -1.
     -611    1    3    3    0    0  0.62828742654E-01  0.60438226007E-02  0.56178836072E+01  0.56182470756E+01  0.10000000000E-01 0.  1.
      611    1    3    3    0    0 -0.81282674933E-01  0.14414101812E-01  0.57489280952E+01  0.57495294489E+01  0.10000000000E-01 0. -1.
</event>
<event>
 7   0  0.6206631E-02  0.9118800E+02  0.7818608E-02  0.1180000E+00
       11   -1    0    0    0    0  0.00000000000E+00  0.00000000000E+00  0.11999999989E+02  0.12000000000E+02  0.51109989000E-03 0.  1.
     -623   -1    0    0    0    0  0.00000000000E+00  0.00000000000E+00  0.42561509872E-11  0.25126700000E+02  0.25126700000E+02 0. -1.
      622    2    1    2    0    0 -0.67101923437E-02 -0.89585319417E-02  0.11954779239E+02  0.11955222291E+02  0.10231368431E+00 0.  0.
       11    1    1    2    0    0  0.20772494532E-01 -0.80188172689E-02  0.38833560440E-01  0.44767226842E-01  0.51109989000E-03 0.  1.
     -623    1    1    2    0    0 -0.14062302188E-01  0.16977349211E-01  0.63871898081E-02  0.25126710482E+02  0.25126700000E+02 0. -1.
     -611    1    3    3    0    0 -0.50787749978E-02  0.20503488470E-01  0.10793200989E+02  0.10793226292E+02  0.10000000000E-01 0.  1.
      611    1    3    3    0    0 -0.16314173459E-02 -0.29462020412E-01  0.11615782496E+01  0.11619959992E+01  0.10000000000E-01 0. -1.
</event>
<event>
 7   0  0.6206631E-02  0.9118800E+02  0.7818608E-02  0.1180000E+00
       11   -1    0    0    0    0  0.00000000000E+00  0.00000000000E+00  0.11999999989E+02  0.12000000000E+02  0.51109989000E-03 0. -1.
     -623   -1    0    0    0    0  0.00000000000E+00  0.00000000000E+00  0.42561509872E-11  0.25126700000E+02  0.25126700000E+02 0. -1.
      622    2    1    2    0    0 -0.23380714379E-01  0.17761014557E-01  0.11753188043E+02  0.11753797824E+02  0.11606886368E+00 0.  0.
       11    1    1    2    0    0  0.34578652011E-01 -0.12226177838E-01  0.24345112115E+00  0.24619884689E+00  0.51109989000E-03 0. -1.
     -623    1    1    2    0    0 -0.11197937632E-01 -0.55348367191E-02  0.33608245719E-02  0.25126703330E+02  0.25126700000E+02 0. -1.
     -611    1    3    3    0    0  0.52036376580E-02 -0.20322789109E-01  0.53527874792E+00  0.53578300792E+00  0.10000000000E-01 0. -1.
      611    1    3    3    0    0 -0.28584352037E-01  0.38083803665E-01  0.11217909295E+02  0.11218014816E+02  0.10000000000E-01 0. -1.
</event>
<event>
 7   0  0.6206631E-02  0.9118800E+02  0.7818608E-02  0.1180000E+00
       11   -1    0    0    0    0  0.00000000000E+00  0.00000000000E+00  0.11999999989E+02  0.12000000000E+02  0.51109989000E-03 0.  1.
     -623   -1    0    0    0    0  0.00000000000E+00  0.00000000000E+00  0.42561509872E-11  0.25126700000E+02  0.25126700000E+02 0. -1.
      622    2    1    2    0    0 -0.15056460822E-01 -0.14821481855E-01  0.10948734794E+02  0.10949631180E+02  0.13850277663E+00 0.  0.
       11    1    1    2    0    0  0.23111285761E-01  0.13754894233E-01  0.10500229728E+01  0.10503674754E+01  0.51109989000E-03 0.  1.
     -623    1    1    2    0    0 -0.80548249389E-02  0.10665876227E-02  0.12422222494E-02  0.25126701344E+02  0.25126700000E+02 0. -1.
     -611    1    3    3    0    0 -0.57240875215E-01 -0.27935994386E-01  0.94317218864E+01  0.94319422538E+01  0.10000000000E-01 0.  1.
      611    1    3    3    0    0  0.42184414393E-01  0.13114512530E-01  0.15170129077E+01  0.15176889264E+01  0.10000000000E-01 0.  1.
</event>
<event>
 7   0  0.6206631E-02  0.9118800E+02  0.7818608E-02  0.1180000E+00
       11   -1    0    0    0    0  0.00000000000E+00  0.00000000000E+00  0.11999999989E+02  0.12000000000E+02  0.51109989000E-03 0.  1.
     -623   -1    0    0    0    0  0.00000000000E+00  0.00000000000E+00  0.42561509872E-11  0.25126700000E+02  0.25126700000E+02 0.  1.
      622    2    1    2    0    0 -0.39335075001E-02 -0.51403455219E-02  0.89269656442E+01  0.89271360353E+01  0.54774864023E-01 0.  0.
       11    1    1    2    0    0 -0.30600108734E-03 -0.36604457975E-03  0.30728629235E+01  0.30728630031E+01  0.51109989000E-03 0.  1.
     -623    1    1    2    0    0  0.42395085875E-02  0.55063901016E-02  0.17142142734E-03  0.25126700962E+02  0.25126700000E+02 0.  1.
     -611    1    3    3    0    0 -0.13106679854E-01  0.18431303361E-01  0.27720252146E+01  0.27721355105E+01  0.10000000000E-01 0. -1.
      611    1    3    3    0    0  0.91731723534E-02 -0.23571648883E-01  0.61549404296E+01  0.61550005249E+01  0.10000000000E-01 0.  1.
</event>
<event>
 7   0  0.6206631E-02  0.9118800E+02  0.7818608E-02  0.1180000E+00
       11   -1    0    0    0    0  0.00000000000E+00  0.00000000000E+00  0.11999999989E+02  0.12000000000E+02  0.51109989000E-03 0.  1.
     -623   -1    0    0    0    0  0.00000000000E+00  0.00000000000E+00  0.42561509872E-11  0.25126700000E+02  0.25126700000E+02 0.  1.
      622    2    1    2    0    0 -0.10559415100E-01  0.53837585543E-01  0.97885982171E+01  0.97891351692E+01  0.86615912348E-01 0.  0.
       11    1    1    2    0    0  0.42466041893E-01 -0.56513518771E-01  0.22097138822E+01  0.22108443737E+01  0.51109989000E-03 0.  1.
     -623    1    1    2    0    0 -0.31906626793E-01  0.26759332280E-02  0.16878898321E-02  0.25126720457E+02  0.25126700000E+02 0.  1.
     -611    1    3    3    0    0 -0.41458211334E-01  0.69795764061E-02  0.32283431570E+01  0.32286323787E+01  0.10000000000E-01 0. -1.
      611    1    3    3    0    0  0.30898796234E-01  0.46858009137E-01  0.65602550602E+01  0.65605027904E+01  0.10000000000E-01 0.  1.
</event>
<event>
 7   0  0.6206631E-02  0.9118800E+02  0.7818608E-02  0.1180000E+00
       11   -1    0    0    0    0  0.00000000000E+00  0.00000000000E+00  0.11999999989E+02  0.12000000000E+02  0.51109989000E-03 0.  1.
     -623   -1    0    0    0    0  0.00000000000E+00  0.00000000000E+00  0.42561509872E-11  0.25126700000E+02  0.25126700000E+02 0. -1.
      622    2    1    2    0    0 -0.46503835299E-02 -0.20171399531E-01  0.11880733136E+02  0.11881229424E+02  0.10660331485E+00 0.  0.
       11    1    1    2    0    0  0.10602562231E-01  0.49591701457E-02  0.11818593015E+00  0.11876524325E+00  0.51109989000E-03 0.  1.
     -623    1    1    2    0    0 -0.59521787012E-02  0.15212229385E-01  0.10809234148E-02  0.25126705333E+02  0.25126700000E+02 0. -1.
     -611    1    3    3    0    0 -0.15319191535E-01  0.21060598342E-01  0.97847803419E+01  0.97848201090E+01  0.10000000000E-01 0.  1.
      611    1    3    3    0    0  0.10668808005E-01 -0.41231997873E-01  0.20959527936E+01  0.20964093146E+01  0.10000000000E-01 0. -1.
</event>
<event>
 7   0  0.6206631E-02  0.9118800E+02  0.7818608E-02  0.1180000E+00
       11   -1    0    0    0    0  0.00000000000E+00  0.00000000000E+00  0.11999999989E+02  0.12000000000E+02  0.51109989000E-03 0.  1.
     -623   -1    0    0    0    0  0.00000000000E+00  0.00000000000E+00  0.42561509872E-11  0.25126700000E+02  0.25126700000E+02 0.  1.
      622    2    1    2    0    0 -0.24825035315E-01  0.15140192402E-02  0.11280247877E+02  0.11281167646E+02  0.14188976273E+00 0.  0.
       11    1    1    2    0    0  0.23356924244E-01 -0.58612283686E-02  0.71842824298E+00  0.71883190069E+00  0.51109989000E-03 0.  1.
     -623    1    1    2    0    0  0.14681110712E-02  0.43472091284E-02  0.13238691531E-02  0.25126700454E+02  0.25126700000E+02 0.  1.
     -611    1    3    3    0    0  0.20235369010E-01 -0.60611104784E-01  0.42205347755E+01  0.42210303205E+01  0.10000000000E-01 0. -1.
      611    1    3    3    0    0 -0.45060404325E-01  0.62125124024E-01  0.70597131015E+01  0.70601373250E+01  0.10000000000E-01 0.  1.
</event>
<event>
 7   0  0.6206631E-02  0.9118800E+02  0.7818608E-02  0.1180000E+00
       11   -1    0    0    0    0  0.00000000000E+00  0.00000000000E+00  0.11999999989E+02  0.12000000000E+02  0.51109989000E-03 0. -1.
     -623   -1    0    0    0    0  0.00000000000E+00  0.00000000000E+00  0.42561509872E-11  0.25126700000E+02  0.25126700000E+02 0. -1.
      622    2    1    2    0    0  0.11103888612E-01 -0.11467351050E+00  0.66003213537E+01  0.66019977802E+01  0.94124424138E-01 0.  0.
       11    1    1    2    0    0 -0.19016572588E-01  0.68198429754E-01  0.53974935435E+01  0.53979578981E+01  0.51109989000E-03 0. -1.
     -623    1    1    2    0    0  0.79126839756E-02  0.46475080747E-01  0.21850918758E-02  0.25126744322E+02  0.25126700000E+02 0. -1.
     -611    1    3    3    0    0  0.23426878649E-01 -0.96282105783E-01  0.31149294465E+01  0.31165212208E+01  0.10000000000E-01 0.  1.
      611    1    3    3    0    0 -0.12322990037E-01 -0.18391404718E-01  0.34853919072E+01  0.34854765595E+01  0.10000000000E-01 0. -1.
</event>
<event>
 7   0  0.6206631E-02  0.9118800E+02  0.7818608E-02  0.1180000E+00
       11   -1    0    0    0    0  0.00000000000E+00  0.00000000000E+00  0.11999999989E+02  0.12000000000E+02  0.51109989000E-03 0.  1.
     -623   -1    0    0    0    0  0.00000000000E+00  0.00000000000E+00  0.42561509872E-11  0.25126700000E+02  0.25126700000E+02 0.  1.
      622    2    1    2    0    0  0.47758235051E-02  0.28930036580E-01  0.98709937829E+01  0.98713926570E+01  0.83755427522E-01 0.  0.
       11    1    1    2    0    0  0.43292555222E-02 -0.32084267953E-01  0.21283592072E+01  0.21286054869E+01  0.51109989000E-03 0.  1.
     -623    1    1    2    0    0 -0.91050790273E-02  0.31542313735E-02  0.64699893076E-03  0.25126701856E+02  0.25126700000E+02 0.  1.
     -611    1    3    3    0    0  0.18130301859E-01 -0.29114584027E-02  0.66487312584E+00  0.66520181743E+00  0.10000000000E-01 0. -1.
      611    1    3    3    0    0 -0.13354478354E-01  0.31841494982E-01  0.92061206571E+01  0.92061908396E+01  0.10000000000E-01 0.  1.
</event>
<event>
 7   0  0.6206631E-02  0.9118800E+02  0.7818608E-02  0.1180000E+00
       11   -1    0    0    0    0  0.00000000000E+00  0.00000000000E+00  0.11999999989E+02  0.12000000000E+02  0.51109989000E-03 0.  1.
     -623   -1    0    0    0    0  0.00000000000E+00  0.00000000000E+00  0.42561509872E-11  0.25126700000E+02  0.25126700000E+02 0. -1.
      622    2    1    2    0    0  0.34555581684E-01 -0.10660918419E+00  0.44721576125E+01  0.44747410853E+01  0.10273491491E+00 0.  0.
       11    1    1    2    0    0 -0.84175883822E-02  0.94978413009E-01  0.75246382981E+01  0.75252424236E+01  0.51109989000E-03 0.  1.
     -623    1    1    2    0    0 -0.26137993302E-01  0.11630771182E-01  0.32040784654E-02  0.25126716491E+02  0.25126700000E+02 0. -1.
     -611    1    3    3    0    0  0.42890745658E-01 -0.11980430886E+00  0.33508007601E+01  0.33532310422E+01  0.10000000000E-01 0.  1.
      611    1    3    3    0    0 -0.83351639737E-02  0.13195124664E-01  0.11213568525E+01  0.11215100431E+01  0.10000000000E-01 0. -1.
</event>
<event>
 7   0  0.6206631E-02  0.9118800E+02  0.7818608E-02  0.1180000E+00
       11   -1    0    0    0    0  0.00000000000E+00  0.00000000000E+00  0.11999999989E+02  0.12000000000E+02  0.51109989000E-03 0.  1.
     -623   -1    0    0    0    0  0.00000000000E+00  0.00000000000E+00  0.42561509872E-11  0.25126700000E+02  0.25126700000E+02 0.  1.
      622    2    1    2    0    0  0.16981188741E-01  0.12195629631E-01  0.11349570182E+02  0.11350120567E+02  0.10980196528E+00 0.  0.
       11    1    1    2    0    0 -0.16451331329E-01 -0.99873374849E-02  0.64959408239E+00  0.64987931673E+00  0.51109989000E-03 0.  1.
     -623    1    1    2    0    0 -0.52985741204E-03 -0.22082921460E-02  0.83572482608E-03  0.25126700117E+02  0.25126700000E+02 0.  1.
     -611    1    3    3    0    0 -0.17774509403E-01 -0.11558747674E-01  0.59276075449E+00  0.59322411439E+00  0.10000000000E-01 0.  1.
      611    1    3    3    0    0  0.34755698143E-01  0.23754377305E-01  0.10756809427E+02  0.10756896452E+02  0.10000000000E-01 0.  1.
</event>
<event>
 7   0  0.6206631E-02  0.9118800E+02  0.7818608E-02  0.1180000E+00
       11   -1    0    0    0    0  0.00000000000E+00  0.00000000000E+00  0.11999999989E+02  0.12000000000E+02  0.51109989000E-03 0. -1.
     -623   -1    0    0    0    0  0.00000000000E+00  0.00000000000E+00  0.42561509872E-11  0.25126700000E+02  0.25126700000E+02 0. -1.
      622    2    1    2    0    0 -0.31460857789E-03  0.34767087515E-01  0.92537941280E+01  0.92547422528E+01  0.12782626318E+00 0.  0.
       11    1    1    2    0    0 -0.35220934016E-01 -0.61897164782E-01  0.27442939497E+01  0.27452178997E+01  0.51109989000E-03 0. -1.
     -623    1    1    2    0    0  0.35535542594E-01  0.27130077268E-01  0.19119113882E-02  0.25126739847E+02  0.25126700000E+02 0. -1.
     -611    1    3    3    0    0  0.13073148589E-01  0.14404264389E-01  0.26253020100E+00  0.26343973975E+00  0.10000000000E-01 0.  1.
      611    1    3    3    0    0 -0.13387757166E-01  0.20362823126E-01  0.89912639270E+01  0.89913025131E+01  0.10000000000E-01 0. -1.
</event>
<event>
 7   0  0.6206631E-02  0.9118800E+02  0.7818608E-02  0.1180000E+00
       11   -1    0    0    0    0  0.00000000000E+00  0.00000000000E+00  0.11999999989E+02  0.12000000000E+02  0.51109989000E-03 0.  1.
     -623   -1    0    0    0    0  0.00000000000E+00  0.00000000000E+00  0.42561509872E-11  0.25126700000E+02  0.25126700000E+02 0. -1.
      622    2    1    2    0    0  0.53681858444E-01 -0.15888378936E-01  0.28738987202E+01  0.28768834579E+01  0.11844996252E+00 0.  0.
       11    1    1    2    0    0 -0.62062595367E-01  0.29082124217E-01  0.91228540003E+01  0.91231114707E+01  0.51109989000E-03 0.  1.
     -623    1    1    2    0    0  0.83807369233E-02 -0.13193745281E-01  0.32472686529E-02  0.25126705071E+02  0.25126700000E+02 0. -1.
     -611    1    3    3    0    0  0.53395672154E-01 -0.41982378831E-02  0.50431480756E+00  0.50724959156E+00  0.10000000000E-01 0. -1.
      611    1    3    3    0    0  0.28618628922E-03 -0.11690141053E-01  0.23695839126E+01  0.23696338663E+01  0.10000000000E-01 0.  1.
</event>
<event>
 7   0  0.6206631E-02  0.9118800E+02  0.7818608E-02  0.1180000E+00
       11   -1    0    0    0    0  0.00000000000E+00  0.00000000000E+00  0.11999999989E+02  0.12000000000E+02  0.51109989000E-03 0.  1.
     -623   -1    0    0    0    0  0.00000000000E+00  0.00000000000E+00  0.42561509872E-11  0.25126700000E+02  0.25126700000E+02 0. -1.
      622    2    1    2    0    0 -0.52593882486E-03  0.59911479042E-03  0.10210193565E+02  0.10210647989E+02  0.96328019076E-01 0.  0.
       11    1    1    2    0    0  0.23429174719E-03 -0.37658117064E-03  0.17893518761E+01  0.17893520041E+01  0.51109989000E-03 0.  1.
     -623    1    1    2    0    0  0.29164707767E-03 -0.22253361978E-03  0.45454798186E-03  0.25126700007E+02  0.25126700000E+02 0. -1.
     -611    1    3    3    0    0  0.10224486037E-01 -0.31761383911E-01  0.15914007894E+01  0.15917819568E+01  0.10000000000E-01 0. -1.
      611    1    3    3    0    0 -0.10750424862E-01  0.32360498702E-01  0.86187927756E+01  0.86188660323E+01  0.10000000000E-01 0.  1.
</event>
<event>
 7   0  0.6206631E-02  0.9118800E+02  0.7818608E-02  0.1180000E+00
       11   -1    0    0    0    0  0.00000000000E+00  0.00000000000E+00  0.11999999989E+02  0.12000000000E+02  0.51109989000E-03 0.  1.
     -623   -1    0    0    0    0  0.00000000000E+00  0.00000000000E+00  0.42561509872E-11  0.25126700000E+02  0.25126700000E+02 0.  1.
      622    2    1    2    0    0  0.66239120829E-04 -0.41132525871E-01  0.98397899803E+01  0.98404635636E+01  0.10753790220E+00 0.  0.
       11    1    1    2    0    0  0.76640041484E-02  0.55902482543E-01  0.21587935235E+01  0.21595308663E+01  0.51109989000E-03 0.  1.
     -623    1    1    2    0    0 -0.77302432693E-02 -0.14769956672E-01  0.14164853305E-02  0.25126705570E+02  0.25126700000E+02 0.  1.
     -611    1    3    3    0    0 -0.41218774031E-02 -0.15527932060E-01  0.28248725131E+00  0.28312038729E+00  0.10000000000E-01 0. -1.
      611    1    3    3    0    0  0.41881165239E-02 -0.25604593811E-01  0.95573027290E+01  0.95573431763E+01  0.10000000000E-01 0.  1.
</event>
<event>
 7   0  0.6206631E-02  0.9118800E+02  0.7818608E-02  0.1180000E+00
       11   -1    0    0    0    0  0.00000000000E+00  0.00000000000E+00  0.11999999989E+02  0.12000000000E+02  0.51109989000E-03 0.  1.
     -623   -1    0    0    0    0  0.00000000000E+00  0.00000000000E+00  0.42561509872E-11  0.25126700000E+02  0.25126700000E+02 0. -1.
      622    2    1    2    0    0  0.45982316584E-01  0.76862815473E-01  0.84613962573E+01  0.84623764672E+01  0.92555838032E-01 0.  0.
       11    1    1    2    0    0 -0.66176198904E-01 -0.81148341610E-01  0.35360648678E+01  0.35376149243E+01  0.51109989000E-03 0.  1.
     -623    1    1    2    0    0  0.20193882320E-01  0.42855261370E-02  0.25388640207E-02  0.25126708608E+02  0.25126700000E+02 0. -1.
     -611    1    3    3    0    0  0.25687381539E-01  0.94007582171E-01  0.57823137739E+01  0.57831435956E+01  0.10000000000E-01 0.  1.
      611    1    3    3    0    0  0.20294935044E-01 -0.17144766698E-01  0.26790824834E+01  0.26792328716E+01  0.10000000000E-01 0. -1.
</event>
<event>
 7   0  0.6206631E-02  0.9118800E+02  0.7818608E-02  0.1180000E+00
       11   -1    0    0    0    0  0.00000000000E+00  0.00000000000E+00  0.11999999989E+02  0.12000000000E+02  0.51109989000E-03 0. -1.
     -623   -1    0    0    0    0  0.00000000000E+00  0.00000000000E+00  0.42561509872E-11  0.25126700000E+02  0.25126700000E+02 0.  1.
      622    2    1    2    0    0 -0.36805124761E-02  0.30877304071E-02  0.11980300879E+02  0.11980747879E+02  0.10338039828E+00 0.  0.
       11    1    1    2    0    0  0.28204316957E-02  0.56494282337E-03  0.19028867873E-01  0.19251831887E-01  0.51109989000E-03 0. -1.
     -623    1    1    2    0    0  0.86008078042E-03 -0.36526732305E-02  0.67024221381E-03  0.25126700289E+02  0.25126700000E+02 0.  1.
     -611    1    3    3    0    0  0.31228954459E-01 -0.23040679756E-01  0.91984628643E+01  0.91985501676E+01  0.10000000000E-01 0.  1.
      611    1    3    3    0    0 -0.34909466935E-01  0.26128410163E-01  0.27818380148E+01  0.27821977114E+01  0.10000000000E-01 0. -1.
</event>
<event>
 7   0  0.6206631E-02  0.9118800E+02  0.7818608E-02  0.1180000E+00
       11   -1    0    0    0    0  0.00000000000E+00  0.00000000000E+00  0.11999999989E+02  0.12000000000E+02  0.51109989000E-03 0.  1.
     -623   -1    0    0    0    0  0.00000000000E+00  0.00000000000E+00  0.42561509872E-11  0.25126700000E+02  0.25126700000E+02 0. -1.
      622    2    1    2    0    0 -0.40296441450E-02  0.75232765203E-03  0.11989684759E+02  0.11990382990E+02  0.12933226715E+00 0.  0.
       11    1    1    2    0    0 -0.15298397904E-04 -0.97698939508E-03  0.95532404716E-02  0.96166714080E-02  0.51109989000E-03 0.  1.
     -623    1    1    2    0    0  0.40449425429E-02  0.22466174305E-03  0.76198972429E-03  0.25126700338E+02  0.25126700000E+02 0. -1.
     -611    1    3    3    0    0 -0.89328975621E-02 -0.17296533529E-01  0.11658158245E+02  0.11658178788E+02  0.10000000000E-01 0.  1.
      611    1    3    3    0    0  0.49032534170E-02  0.18048861181E-01  0.33152651349E+00  0.33220420291E+00  0.10000000000E-01 0. -1.
</event>
<event>
 7   0  0.6206631E-02  0.9118800E+02  0.7818608E-02  0.1180000E+00
       11   -1    0    0    0    0  0.00000000000E+00  0.00000000000E+00  0.11999999989E+02  0.12000000000E+02  0.51109989000E-03 0.  1.
     -623   -1    0    0    0    0  0.00000000000E+00  0.00000000000E+00  0.42561509872E-11  0.25126700000E+02  0.25126700000E+02 0.  1.
      622    2    1    2    0    0 -0.41329822965E-02 -0.12528650760E-01  0.81188029195E+01  0.81194462411E+01  0.10135269435E+00 0.  0.
       11    1    1    2    0    0  0.25399674093E-02  0.55194732453E-02  0.38805479322E+01  0.38805527224E+01  0.51109989000E-03 0.  1.
     -623    1    1    2    0    0  0.15930148872E-02  0.70091775147E-02  0.64913747474E-03  0.25126701036E+02  0.25126700000E+02 0.  1.
     -611    1    3    3    0    0 -0.22622482100E-01 -0.31039574404E-01  0.73882260534E+01  0.73883326568E+01  0.10000000000E-01 0.  1.
      611    1    3    3    0    0  0.18489499803E-01  0.18510923644E-01  0.73057686606E+00  0.73111358428E+00  0.10000000000E-01 0. -1.
</event>
<event>
 7   0  0.6206631E-02  0.9118800E+02  0.7818608E-02  0.1180000E+00
       11   -1    0    0    0    0  0.00000000000E+00  0.00000000000E+00  0.11999999989E+02  0.12000000000E+02  0.51109989000E-03 0.  1.
     -623   -1    0    0    0    0  0.00000000000E+00  0.00000000000E+00  0.42561509872E-11  0.25126700000E+02  0.25126700000E+02 0. -1.
      622    2    1    2    0    0  0.10866262964E-02  0.38194138312E-01  0.11866411483E+02  0.11867524974E+02  0.15801123723E+00 0.  0.
       11    1    1    2    0    0 -0.23586336266E-01 -0.36668879865E-01  0.12508151931E+00  0.13246346555E+00  0.51109989000E-03 0.  1.
     -623    1    1    2    0    0  0.22499709970E-01 -0.15252584470E-02  0.85069863878E-02  0.25126711560E+02  0.25126700000E+02 0. -1.
     -611    1    3    3    0    0  0.63817673101E-03  0.70585422961E-01  0.11218920215E+02  0.11219146737E+02  0.10000000000E-01 0.  1.
      611    1    3    3    0    0  0.44844956536E-03 -0.32391284649E-01  0.64749126811E+00  0.64837823738E+00  0.10000000000E-01 0. -1.
</event>
<event>
 7   0  0.6206631E-02  0.9118800E+02  0.7818608E-02  0.1180000E+00
       11   -1    0    0    0    0  0.00000000000E+00  0.00000000000E+00  0.11999999989E+02  0.12000000000E+02  0.51109989000E-03 0.  1.
     -623   -1    0    0    0    0  0.00000000000E+00  0.00000000000E+00  0.42561509872E-11  0.25126700000E+02  0.25126700000E+02 0.  1.
      622    2    1    2    0    0 -0.34027981881E-02  0.28392701076E-03  0.11874198382E+02  0.11874310454E+02  0.51476942717E-01 0.  0.
       11    1    1    2    0    0 -0.66349534831E-03  0.39732249012E-02  0.12562324863E+00  0.12568885615E+00  0.51109989000E-03 0.  1.
     -623    1    1    2    0    0  0.40662935364E-02 -0.42571519119E-02  0.17835862496E-03  0.25126700690E+02  0.25126700000E+02 0.  1.
     -611    1    3    3    0    0  0.15550694796E-01 -0.85850814091E-03  0.94217578891E+01  0.94217760683E+01  0.10000000000E-01 0.  1.
      611    1    3    3    0    0 -0.18953492984E-01  0.11424351517E-02  0.24524404929E+01  0.24525343853E+01  0.10000000000E-01 0. -1.
</event>
<event>
 7   0  0.6206631E-02  0.9118800E+02  0.7818608E-02  0.1180000E+00
       11   -1    0    0    0    0  0.00000000000E+00  0.00000000000E+00  0.11999999989E+02  0.12000000000E+02  0.51109989000E-03 0. -1.
     -623   -1    0    0    0    0  0.00000000000E+00  0.00000000000E+00  0.42561509872E-11  0.25126700000E+02  0.25126700000E+02 0. -1.
      622    2    1    2    0    0 -0.32078613693E-01 -0.43133470547E-01  0.71609064003E+01  0.71622003769E+01  0.12507690291E+00 0.  0.
       11    1    1    2    0    0  0.49340520066E-01  0.23387716622E-01  0.48374777021E+01  0.48377858832E+01  0.51109989000E-03 0. -1.
     -623    1    1    2    0    0 -0.17261906373E-01  0.19745753925E-01  0.16158868000E-02  0.25126713740E+02  0.25126700000E+02 0. -1.
     -611    1    3    3    0    0 -0.68820028679E-01 -0.58245995567E-01  0.39997681160E+01  0.40007966425E+01  0.10000000000E-01 0.  1.
      611    1    3    3    0    0  0.36741414985E-01  0.15112525019E-01  0.31611382842E+01  0.31614037344E+01  0.10000000000E-01 0. -1.
</event>
<event>
 7   0  0.6206631E-02  0.9118800E+02  0.7818608E-02  0.1180000E+00
       11   -1    0    0    0    0  0.00000000000E+00  0.00000000000E+00  0.11999999989E+02  0.12000000000E+02  0.51109989000E-03 0. -1.
     -623   -1    0    0    0    0  0.00000000000E+00  0.00000000000E+00  0.42561509872E-11  0.25126700000E+02  0.25126700000E+02 0.  1.
      622    2    1    2    0    0  0.72437370039E-02  0.53029648494E-02  0.10877927503E+02  0.10878228126E+02  0.80373021994E-01 0.  0.
       11    1    1    2    0    0 -0.10027115399E-01  0.10291991440E-02  0.11217255152E+01  0.11217709191E+01  0.51109989000E-03 0. -1.
     -623    1    1    2    0    0  0.27833783954E-02 -0.63321639934E-02  0.34697116556E-03  0.25126700954E+02  0.25126700000E+02 0.  1.
     -611    1    3    3    0    0  0.95331491165E-02  0.13154807769E-02  0.10670353474E+02  0.10670362500E+02  0.10000000000E-01 0. -1.
      611    1    3    3    0    0 -0.22894121127E-02  0.39874840725E-02  0.20757402875E+00  0.20786562690E+00  0.10000000000E-01 0. -1.
</event>
<event>
 7   0  0.6206631E-02  0.9118800E+02  0.7818608E-02  0.1180000E+00
       11   -1    0    0    0    0  0.00000000000E+00  0.00000000000E+00  0.11999999989E+02  0.12000000000E+02  0.51109989000E-03 0.  1.
     -623   -1    0    0    0    0  0.00000000000E+00  0.00000000000E+00  0.42561509872E-11  0.25126700000E+02  0.25126700000E+02 0.  1.
      622    2    1    2    0    0 -0.38014093646E-03 -0.45513794733E-02  0.11933782778E+02  0.11933890269E+02  0.50444888297E-01 0.  0.
       11    1    1    2    0    0 -0.35150665243E-03  0.44812478472E-02  0.65954746768E-01  0.66109719282E-01  0.51109989000E-03 0.  1.
     -623    1    1    2    0    0  0.73164758888E-03  0.70131626016E-04  0.26246417996E-03  0.25126700012E+02  0.25126700000E+02 0.  1.
     -611    1    3    3    0    0 -0.61115157037E-02 -0.22818628374E-01  0.42700548865E+01  0.42701319388E+01  0.10000000000E-01 0. -1.
      611    1    3    3    0    0  0.57313747672E-02  0.18267248900E-01  0.76637278916E+01  0.76637583298E+01  0.10000000000E-01 0.  1.
</event>
<event>
 7   0  0.6206631E-02  0.9118800E+02  0.7818608E-02  0.1180000E+00
       11   -1    0    0    0    0  0.00000000000E+00  0.00000000000E+00  0.11999999989E+02  0.12000000000E+02  0.51109989000E-03 0. -1.
     -623   -1    0    0    0    0  0.00000000000E+00  0.00000000000E+00  0.42561509872E-11  0.25126700000E+02  0.25126700000E+02 0. -1.
      622    2    1    2    0    0 -0.11044357914E-01  0.16719555393E-03  0.11603610742E+02  0.11603922218E+02  0.84300578918E-01 0.  0.
       11    1    1    2    0    0 -0.73458181548E-02 -0.58364745489E-02  0.39595893990E+00  0.39607040888E+00  0.51109989000E-03 0. -1.
     -623    1    1    2    0    0  0.18390176069E-01  0.56692789950E-02  0.43030738651E-03  0.25126707373E+02  0.25126700000E+02 0. -1.
     -611    1    3    3    0    0  0.16887084593E-01 -0.16130541930E-01  0.12599092523E+01  0.12601653431E+01  0.10000000000E-01 0.  1.
      611    1    3    3    0    0 -0.27931442507E-01  0.16297737484E-01  0.10343701490E+02  0.10343756875E+02  0.10000000000E-01 0. -1.
</event>
<event>
 7   0  0.6206631E-02  0.9118800E+02  0.7818608E-02  0.1180000E+00
       11   -1    0    0    0    0  0.00000000000E+00  0.00000000000E+00  0.11999999989E+02  0.12000000000E+02  0.51109989000E-03 0.  1.
     -623   -1    0    0    0    0  0.00000000000E+00  0.00000000000E+00  0.42561509872E-11  0.25126700000E+02  0.25126700000E+02 0. -1.
      622    2    1    2    0    0  0.75475820215E-02 -0.33064304364E-02  0.11916528089E+02  0.11917405115E+02  0.14434367592E+00 0.  0.
       11    1    1    2    0    0 -0.94443367919E-02  0.15880162517E-02  0.82036017420E-01  0.82594713332E-01  0.51109989000E-03 0.  1.
     -623    1    1    2    0    0  0.18967547704E-02  0.17184141846E-02  0.14358830883E-02  0.25126700171E+02  0.25126700000E+02 0. -1.
     -611    1    3    3    0    0 -0.56013570643E-01 -0.26550091286E-01  0.32465350420E+01  0.32471421599E+01  0.10000000000E-01 0. -1.
      611    1    3    3    0    0  0.63561152664E-01  0.23243660849E-01  0.86699930466E+01  0.86702629554E+01  0.10000000000E-01 0.  1.
</event>
<event>
 7   0  0.6206631E-02  0.9118800E+02  0.7818608E-02  0.1180000E+00
       11   -1    0    0    0    0  0.00000000000E+00  0.00000000000E+00  0.11999999989E+02  0.12000000000E+02  0.51109989000E-03 0.  1.
     -623   -1    0    0    0    0  0.00000000000E+00  0.00000000000E+00  0.42561509872E-11  0.25126700000E+02  0.25126700000E+02 0. -1.
      622    2    1    2    0    0 -0.20843527628E-01  0.44386110190E-02  0.10906213508E+02  0.10906552757E+02  0.83341551352E-01 0.  0.
       11    1    1    2    0    0  0.20994462792E-01  0.32179718954E-02  0.10932396460E+01  0.10934460699E+01  0.51109989000E-03 0.  1.
     -623    1    1    2    0    0 -0.15093516381E-03 -0.76565829144E-02  0.54683531429E-03  0.25126701173E+02  0.25126700000E+02 0. -1.
     -611    1    3    3    0    0 -0.15317194332E-01 -0.30048540727E-02  0.10618594344E+02  0.10618610525E+02  0.10000000000E-01 0.  1.
      611    1    3    3    0    0 -0.55263332954E-02  0.74434650917E-02  0.28761916372E+00  0.28794223183E+00  0.10000000000E-01 0.  1.
</event>
<event>
 7   0  0.6206631E-02  0.9118800E+02  0.7818608E-02  0.1180000E+00
       11   -1    0    0    0    0  0.00000000000E+00  0.00000000000E+00  0.11999999989E+02  0.12000000000E+02  0.51109989000E-03 0.  1.
     -623   -1    0    0    0    0  0.00000000000E+00  0.00000000000E+00  0.42561509872E-11  0.25126700000E+02  0.25126700000E+02 0.  1.
      622    2    1    2    0    0  0.55718457438E-01  0.59584701619E-01  0.10227618829E+02  0.10228675267E+02  0.12229437114E+00 0.  0.
       11    1    1    2    0    0 -0.74870901771E-01 -0.93875333108E-01  0.17672187728E+01  0.17712935054E+01  0.51109989000E-03 0.  1.
     -623    1    1    2    0    0  0.19152444333E-01  0.34290631489E-01  0.51623872176E-02  0.25126731228E+02  0.25126700000E+02 0.  1.
     -611    1    3    3    0    0  0.68352819575E-01 -0.34104368819E-02  0.73331676050E+01  0.73334937692E+01  0.10000000000E-01 0.  1.
      611    1    3    3    0    0 -0.12634362137E-01  0.62995138501E-01  0.28944512241E+01  0.28951814975E+01  0.10000000000E-01 0. -1.
</event>
<event>
 7   0  0.6206631E-02  0.9118800E+02  0.7818608E-02  0.1180000E+00
       11   -1    0    0    0    0  0.00000000000E+00  0.00000000000E+00  0.11999999989E+02  0.12000000000E+02  0.51109989000E-03 0.  1.
     -623   -1    0    0    0    0  0.00000000000E+00  0.00000000000E+00  0.42561509872E-11  0.25126700000E+02  0.25126700000E+02 0. -1.
      622    2    1    2    0    0  0.15098247787E-01 -0.38662035078E-01  0.11124819604E+02  0.11125672652E+02  0.13136980424E+00 0.  0.
       11    1    1    2    0    0 -0.12057335374E-01  0.39878638320E-01  0.87333376955E+00  0.87432706660E+00  0.51109989000E-03 0.  1.
     -623    1    1    2    0    0 -0.30409124133E-02 -0.12166032416E-02  0.18466153816E-02  0.25126700281E+02  0.25126700000E+02 0. -1.
     -611    1    3    3    0    0 -0.31262060547E-01  0.17905700492E-01  0.12083729270E+01  0.12089512237E+01  0.10000000000E-01 0. -1.
      611    1    3    3    0    0  0.46360308334E-01 -0.56567735570E-01  0.99164466772E+01  0.99167214284E+01  0.10000000000E-01 0.  1.
</event>
<event>
 7   0  0.6206631E-02  0.9118800E+02  0.7818608E-02  0.1180000E+00
       11   -1    0    0    0    0  0.00000000000E+00  0.00000000000E+00  0.11999999989E+02  0.12000000000E+02  0.51109989000E-03 0. -1.
     -623   -1    0    0    0    0  0.00000000000E+00  0.00000000000E+00  0.42561509872E-11  0.25126700000E+02  0.25126700000E+02 0.  1.
      622    2    1    2    0    0 -0.47135879164E-02 -0.28264312754E-02  0.11963385518E+02  0.11963722341E+02  0.89604582856E-01 0.  0.
       11    1    1    2    0    0  0.26974436305E-02 -0.75349148216E-02  0.35377862110E-01  0.36275411702E-01  0.51109989000E-03 0. -1.
     -623    1    1    2    0    0  0.20161442858E-02  0.10361346097E-01  0.12366088346E-02  0.25126702248E+02  0.25126700000E+02 0.  1.
     -611    1    3    3    0    0  0.54703050330E-02 -0.43655225916E-01  0.50511109901E+01  0.50513124965E+01  0.10000000000E-01 0. -1.
      611    1    3    3    0    0 -0.10183892949E-01  0.40828794640E-01  0.69122745281E+01  0.69124098442E+01  0.10000000000E-01 0.  1.
</event>
<event>
 7   0  0.6206631E-02  0.9118800E+02  0.7818608E-02  0.1180000E+00
       11   -1    0    0    0    0  0.00000000000E+00  0.00000000000E+00  0.11999999989E+02  0.12000000000E+02  0.51109989000E-03 0. -1.
     -623   -1    0    0    0    0  0.00000000000E+00  0.00000000000E+00  0.42561509872E-11  0.25126700000E+02  0.25126700000E+02 0.  1.
      622    2    1    2    0    0  0.60625925743E-01  0.52437282354E-01  0.72488664311E+01  0.72503176587E+01  0.12089849065E+00 0.  0.
       11    1    1    2    0    0 -0.98601966620E-01 -0.54465869635E-01  0.47483174192E+01  0.47496534035E+01  0.51109989000E-03 0. -1.
     -623    1    1    2    0    0  0.37976040877E-01  0.20285872816E-02  0.28161388915E-02  0.25126728938E+02  0.25126700000E+02 0.  1.
     -611    1    3    3    0    0  0.68775175785E-01  0.74169634624E-02  0.19631936251E+01  0.19644373866E+01  0.10000000000E-01 0. -1.
      611    1    3    3    0    0 -0.81492500412E-02  0.45020318891E-01  0.52856728059E+01  0.52858802721E+01  0.10000000000E-01 0.  1.
</event>
<event>
 7   0  0.6206631E-02  0.9118800E+02  0.7818608E-02  0.1180000E+00
       11   -1    0    0    0    0  0.00000000000E+00  0.00000000000E+00  0.11999999989E+02  0.12000000000E+02  0.51109989000E-03 0.  1.
     -623   -1    0    0    0    0  0.00000000000E+00  0.00000000000E+00  0.42561509872E-11  0.25126700000E+02  0.25126700000E+02 0. -1.
      622    2    1    2    0    0  0.36699690244E-02 -0.13238998324E-03  0.11967305809E+02  0.11967804337E+02  0.10917347887E+00 0.  0.
       11    1    1    2    0    0 -0.30044181488E-02  0.24189284247E-02  0.31959564561E-01  0.32195539027E-01  0.51109989000E-03 0.  1.
     -623    1    1    2    0    0 -0.66555087561E-03 -0.22865384415E-02  0.73461568198E-03  0.25126700124E+02  0.25126700000E+02 0. -1.
     -611    1    3    3    0    0 -0.11714640813E-01 -0.37198418858E-01  0.19619930043E+01  0.19624060497E+01  0.10000000000E-01 0. -1.
      611    1    3    3    0    0  0.15384609838E-01  0.37066028875E-01  0.10005312805E+02  0.10005398288E+02  0.10000000000E-01 0.  1.
</event>
<event>
 7   0  0.6206631E-02  0.9118800E+02  0.7818608E-02  0.1180000E+00
       11   -1    0    0    0    0  0.00000000000E+00  0.00000000000E+00  0.11999999989E+02  0.12000000000E+02  0.51109989000E-03 0.  1.
     -623   -1    0    0    0    0  0.00000000000E+00  0.00000000000E+00  0.42561509872E-11  0.25126700000E+02  0.25126700000E+02 0. -1.
      622    2    1    2    0    0  0.11809292202E-01 -0.81542611576E-02  0.11637731886E+02  0.11638257941E+02  0.10972015146E+00 0.  0.
       11    1    1    2    0    0 -0.15673958661E-01  0.55957554617E-02  0.36135820048E+00  0.36174161461E+00  0.51109989000E-03 0.  1.
     -623    1    1    2    0    0  0.38646664592E-02  0.25585056958E-02  0.90990270757E-03  0.25126700444E+02  0.25126700000E+02 0. -1.
     -611    1    3    3    0    0  0.44329622440E-01  0.23542157551E-01  0.87678298961E+01  0.87679792675E+01  0.10000000000E-01 0.  1.
      611    1    3    3    0    0 -0.32520330238E-01 -0.31696418708E-01  0.28699019899E+01  0.28702786740E+01  0.10000000000E-01 0. -1.
</event>
<event>
 7   0  0.6206631E-02  0.9118800E+02  0.7818608E-02  0.1180000E+00
       11   -1    0    0    0    0  0.00000000000E+00  0.00000000000E+00  0.11999999989E+02  0.12000000000E+02  0.51109989000E-03 0. -1.
     -623   -1    0    0    0    0  0.00000000000E+00  0.00000000000E+00  0.42561509872E-11  0.25126700000E+02  0.25126700000E+02 0. -1.
      622    2    1    2    0    0  0.25858862070E-02  0.64548115592E-02  0.11839055536E+02  0.11839621350E+02  0.11553945316E+00 0.  0.
       11    1    1    2    0    0 -0.54716907568E-02 -0.81908157244E-02  0.16007480785E+00  0.16037840937E+00  0.51109989000E-03 0. -1.
     -623    1    1    2    0    0  0.28858045497E-02  0.17360041652E-02  0.86964494842E-03  0.25126700241E+02  0.25126700000E+02 0. -1.
     -611    1    3    3    0    0  0.22172634542E-01  0.68199993240E-02  0.58590861302E+00  0.58645293155E+00  0.10000000000E-01 0.  1.
      611    1    3    3    0    0 -0.19586748335E-01 -0.36518776480E-03  0.11253146923E+02  0.11253168418E+02  0.10000000000E-01 0. -1.
</event>
<event>
 7   0  0.6206631E-02  0.9118800E+02  0.7818608E-02  0.1180000E+00
       11   -1    0    0    0    0  0.00000000000E+00  0.00000000000E+00  0.11999999989E+02  0.12000000000E+02  0.51109989000E-03 0.  1.
     -623   -1    0    0    0    0  0.00000000000E+00  0.00000000000E+00  0.42561509872E-11  0.25126700000E+02  0.25126700000E+02 0. -1.
      622    2    1    2    0    0  0.62082821163E-02 -0.19172663440E-01  0.11823979912E+02  0.11824145362E+02  0.59215231285E-01 0.  0.
       11    1    1    2    0    0  0.22570450260E-01  0.22775444742E-01  0.17288866546E+00  0.17583770351E+00  0.51109989000E-03 0.  1.
     -623    1    1    2    0    0 -0.28778732377E-01 -0.36027813027E-02  0.31314111582E-02  0.25126716934E+02  0.25126700000E+02 0. -1.
     -611    1    3    3    0    0 -0.15940311196E-02  0.68686861186E-02  0.58420462184E+00  0.58433274764E+00  0.10000000000E-01 0.  1.
      611    1    3    3    0    0  0.78023132360E-02 -0.26041349558E-01  0.11239775291E+02  0.11239812615E+02  0.10000000000E-01 0.  1.
</event>
<event>
 7   0  0.6206631E-02  0.9118800E+02  0.7818608E-02  0.1180000E+00
       11   -1    0    0    0    0  0.00000000000E+00  0.00000000000E+00  0.11999999989E+02  0.12000000000E+02  0.51109989000E-03 0.  1.
     -623   -1    0    0    0    0  0.00000000000E+00  0.00000000000E+00  0.42561509872E-11  0.25126700000E+02  0.25126700000E+02 0. -1.
      622    2    1    2    0    0 -0.27278900143E-02  0.56473624960E-02  0.11891846976E+02  0.11892400255E+02  0.11454255966E+00 0.  0.
       11    1    1    2    0    0 -0.50118978006E-02 -0.21809751052E-02  0.10745816877E+00  0.10759830403E+00  0.51109989000E-03 0.  1.
     -623    1    1    2    0    0  0.77397878149E-02 -0.34663873909E-02  0.69484445618E-03  0.25126701441E+02  0.25126700000E+02 0. -1.
     -611    1    3    3    0    0 -0.33414599427E-02  0.36526978249E-01  0.10808733889E+02  0.10808800751E+02  0.10000000000E-01 0.  1.
      611    1    3    3    0    0  0.61356992844E-03 -0.30879615753E-01  0.10831130867E+01  0.10835995043E+01  0.10000000000E-01 0. -1.
</event>
<event>
 7   0  0.6206631E-02  0.9118800E+02  0.7818608E-02  0.1180000E+00
       11   -1    0    0    0    0  0.00000000000E+00  0.00000000000E+00  0.11999999989E+02  0.12000000000E+02  0.51109989000E-03 0.  1.
     -623   -1    0    0    0    0  0.00000000000E+00  0.00000000000E+00  0.42561509872E-11  0.25126700000E+02  0.25126700000E+02 0.  1.
      622    2    1    2    0    0 -0.64208289764E-02 -0.11757976469E-01  0.71927324750E+01  0.71932531222E+01  0.85501732283E-01 0.  0.
       11    1    1    2    0    0  0.72859871916E-02  0.96570413928E-02  0.48067315194E+01  0.48067467693E+01  0.51109989000E-03 0.  1.
     -623    1    1    2    0    0 -0.86515821520E-03  0.21009350763E-02  0.53599474838E-03  0.25126700108E+02  0.25126700000E+02 0.  1.
     -611    1    3    3    0    0  0.36224350794E-01 -0.42431609804E-02  0.22203403902E+01  0.22206624364E+01  0.10000000000E-01 0. -1.
      611    1    3    3    0    0 -0.42645179771E-01 -0.75148154886E-02  0.49723920848E+01  0.49725906858E+01  0.10000000000E-01 0.  1.
</event>
<event>
 6   0  0.6206631E-02  0.9118800E+02  0.7818608E-02  0.1180000E+00
       11   -1    0    0    0    0  0.00000000000E+00  0.00000000000E+00  0.11999999989E+02  0.12000000000E+02  0.51109989000E-03 0.  1.
     -623   -1    0    0    0    0  0.00000000000E+00  0.00000000000E+00  0.42561509872E-11  0.25126700000E+02  0.25126700000E+02 0.  1.
       11    1    1    2    0    0 -0.30232569295E-01  0.24225497202E-01  0.21902539705E+00  0.22242587245E+00  0.51109989000E-03 0.  1.
     -623    1    1    2    0    0  0.36057586650E-01  0.33392990678E-02  0.53442329332E-02  0.25126726662E+02  0.25126700000E+02 0.  1.
     -611    1    1    2    0    0  0.95237145373E-01 -0.47970537671E-02  0.36828038167E+01  0.36840517203E+01  0.10000000000E-01 0. -1.
      611    1    1    2    0    0 -0.10106216273E+00 -0.22767742503E-01  0.80928265425E+01  0.80934957452E+01  0.10000000000E-01 0.  1.
</event>
<event>
 7   0  0.6206631E-02  0.9118800E+02  0.7818608E-02  0.1180000E+00
       11   -1    0    0    0    0  0.00000000000E+00  0.00000000000E+00  0.11999999989E+02  0.12000000000E+02  0.51109989000E-03 0.  1.
     -623   -1    0    0    0    0  0.00000000000E+00  0.00000000000E+00  0.42561509872E-11  0.25126700000E+02  0.25126700000E+02 0. -1.
      622    2    1    2    0    0 -0.89244920442E-02  0.47273334564E-02  0.11919871739E+02  0.11920436093E+02  0.11555240588E+00 0.  0.
       11    1    1    2    0    0  0.22661527533E-03 -0.99172846567E-02  0.78939349681E-01  0.79561837841E-01  0.51109989000E-03 0.  1.
     -623    1    1    2    0    0  0.86978767689E-02  0.51899512003E-02  0.11888999810E-02  0.25126702070E+02  0.25126700000E+02 0. -1.
     -611    1    3    3    0    0 -0.20777021994E-01 -0.50905210231E-01  0.70607047544E+01  0.70609259062E+01  0.10000000000E-01 0.  1.
      611    1    3    3    0    0  0.11852529950E-01  0.55632543688E-01  0.48591669851E+01  0.48595101863E+01  0.10000000000E-01 0. -1.
</event>
<event>
 7   0  0.6206631E-02  0.9118800E+02  0.7818608E-02  0.1180000E+00
       11   -1    0    0    0    0  0.00000000000E+00  0.00000000000E+00  0.11999999989E+02  0.12000000000E+02  0.51109989000E-03 0.  1.
     -623   -1    0    0    0    0  0.00000000000E+00  0.00000000000E+00  0.42561509872E-11  0.25126700000E+02  0.25126700000E+02 0.  1.
      622    2    1    2    0    0  0.25024452336E-01 -0.13508930359E-01  0.99471814402E+01  0.99478008686E+01  0.10730705408E+00 0.  0.
       11    1    1    2    0    0 -0.22181425095E-01 -0.81529226611E-02  0.20520534826E+01  0.20521896215E+01  0.51109989000E-03 0.  1.
     -623    1    1    2    0    0 -0.28430272412E-02  0.21661853020E-01  0.76506632618E-03  0.25126709510E+02  0.25126700000E+02 0.  1.
     -611    1    3    3    0    0  0.64669198414E-01 -0.80691564164E-02  0.73044333188E+01  0.73047308866E+01  0.10000000000E-01 0.  1.
      611    1    3    3    0    0 -0.39644746078E-01 -0.54397739427E-02  0.26427481214E+01  0.26430699821E+01  0.10000000000E-01 0. -1.
</event>
<event>
 7   0  0.6206631E-02  0.9118800E+02  0.7818608E-02  0.1180000E+00
       11   -1    0    0    0    0  0.00000000000E+00  0.00000000000E+00  0.11999999989E+02  0.12000000000E+02  0.51109989000E-03 0.  1.
     -623   -1    0    0    0    0  0.00000000000E+00  0.00000000000E+00  0.42561509872E-11  0.25126700000E+02  0.25126700000E+02 0.  1.
      622    2    1    2    0    0  0.33442233386E-02 -0.20507702667E-02  0.11943125170E+02  0.11943296246E+02  0.63804264050E-01 0.  0.
       11    1    1    2    0    0 -0.22492917351E-03  0.11246795980E-02  0.56689638118E-01  0.56703543014E-01  0.51109989000E-03 0.  1.
     -623    1    1    2    0    0 -0.31192941651E-02  0.92609066873E-03  0.18518055375E-03  0.25126700211E+02  0.25126700000E+02 0.  1.
     -611    1    3    3    0    0  0.24929331880E-01 -0.12917814782E-01  0.33879990100E+01  0.33881301087E+01  0.10000000000E-01 0. -1.
      611    1    3    3    0    0 -0.21585108542E-01  0.10867044516E-01  0.85551261605E+01  0.85551661370E+01  0.10000000000E-01 0.  1.
</event>
<event>
 7   0  0.6206631E-02  0.9118800E+02  0.7818608E-02  0.1180000E+00
       11   -1    0    0    0    0  0.00000000000E+00  0.00000000000E+00  0.11999999989E+02  0.12000000000E+02  0.51109989000E-03 0.  1.
     -623   -1    0    0    0    0  0.00000000000E+00  0.00000000000E+00  0.42561509872E-11  0.25126700000E+02  0.25126700000E+02 0. -1.
      622    2    1    2    0    0 -0.36293026627E-01  0.34615876769E-01  0.10101768143E+02  0.10102238816E+02  0.83630369914E-01 0.  0.
       11    1    1    2    0    0  0.38223286123E-01 -0.27963375399E-01  0.18971690939E+01  0.18977602067E+01  0.51109989000E-03 0.  1.
     -623    1    1    2    0    0 -0.19302594964E-02 -0.66525013696E-02  0.10627522093E-02  0.25126700977E+02  0.25126700000E+02 0. -1.
     -611    1    3    3    0    0 -0.28372276859E-01  0.32452966094E-01  0.98766542476E+01  0.98767533790E+01  0.10000000000E-01 0.  1.
      611    1    3    3    0    0 -0.79207497674E-02  0.21629106744E-02  0.22511389537E+00  0.22548543711E+00  0.10000000000E-01 0.  1.
</event>
<event>
 7   0  0.6206631E-02  0.9118800E+02  0.7818608E-02  0.1180000E+00
       11   -1    0    0    0    0  0.00000000000E+00  0.00000000000E+00  0.11999999989E+02  0.12000000000E+02  0.51109989000E-03 0. -1.
     -623   -1    0    0    0    0  0.00000000000E+00  0.00000000000E+00  0.42561509872E-11  0.25126700000E+02  0.25126700000E+02 0.  1.
      622    2    1    2    0    0 -0.38271830588E-02 -0.99596582463E-03  0.11983367920E+02  0.11983860164E+02  0.10854530327E+00 0.  0.
       11    1    1    2    0    0  0.12254175640E-02  0.20756452688E-03  0.16083638537E-01  0.16139683483E-01  0.51109989000E-03 0. -1.
     -623    1    1    2    0    0  0.26017654948E-02  0.78840129775E-03  0.54843103449E-03  0.25126700153E+02  0.25126700000E+02 0.  1.
     -611    1    3    3    0    0 -0.27366921860E-01 -0.42376083163E-01  0.38042175614E+01  0.38045651440E+01  0.10000000000E-01 0.  1.
      611    1    3    3    0    0  0.23539738802E-01  0.41380117339E-01  0.81791503582E+01  0.81792950195E+01  0.10000000000E-01 0. -1.
</event>
<event>
 7   0  0.6206631E-02  0.9118800E+02  0.7818608E-02  0.1180000E+00
       11   -1    0    0    0    0  0.00000000000E+00  0.00000000000E+00  0.11999999989E+02  0.12000000000E+02  0.51109989000E-03 0.  1.
     -623   -1    0    0    0    0  0.00000000000E+00  0.00000000000E+00  0.42561509872E-11  0.25126700000E+02  0.25126700000E+02 0. -1.
      622    2    1    2    0    0  0.55944810434E-01  0.10212551661E+00  0.10076661826E+02  0.10077791739E+02  0.95986217907E-01 0.  0.
       11    1    1    2    0    0 -0.60725556945E-01 -0.89950915381E-01  0.19191381238E+01  0.19222045053E+01  0.51109989000E-03 0.  1.
     -623    1    1    2    0    0  0.47807465112E-02 -0.12174601224E-01  0.42000397318E-02  0.25126703755E+02  0.25126700000E+02 0. -1.
     -611    1    3    3    0    0  0.61337717107E-01  0.11622951426E+00  0.91888428867E+01  0.91897880939E+01  0.10000000000E-01 0.  1.
      611    1    3    3    0    0 -0.53929066732E-02 -0.14103997653E-01  0.88781893891E+00  0.88800364554E+00  0.10000000000E-01 0. -1.
</event>
<event>
 7   0  0.6206631E-02  0.9118800E+02  0.7818608E-02  0.1180000E+00
       11   -1    0    0    0    0  0.00000000000E+00  0.00000000000E+00  0.11999999989E+02  0.12000000000E+02  0.51109989000E-03 0.  1.
     -623   -1    0    0    0    0  0.00000000000E+00  0.00000000000E+00  0.42561509872E-11  0.25126700000E+02  0.25126700000E+02 0. -1.
      622    2    1    2    0    0  0.58776595414E-02  0.47736766251E-02  0.11861382746E+02  0.11861795510E+02  0.98664788962E-01 0.  0.
       11    1    1    2    0    0 -0.75088337755E-02 -0.10344294625E-02  0.13799519383E+00  0.13820415107E+00  0.51109989000E-03 0.  1.
     -623    1    1    2    0    0  0.16311742341E-02 -0.37392471627E-02  0.62204929631E-03  0.25126700339E+02  0.25126700000E+02 0. -1.
     -611    1    3    3    0    0 -0.58271610753E-02 -0.29048703006E-01  0.99630492722E+01  0.99630983425E+01  0.10000000000E-01 0.  1.
      611    1    3    3    0    0  0.11704820617E-01  0.33822379631E-01  0.18983334738E+01  0.18986971675E+01  0.10000000000E-01 0. -1.
</event>
<event>
 7   0  0.6206631E-02  0.9118800E+02  0.7818608E-02  0.1180000E+00
       11   -1    0    0    0    0  0.00000000000E+00  0.00000000000E+00  0.11999999989E+02  0.12000000000E+02  0.51109989000E-03 0.  1.
     -623   -1    0    0    0    0  0.00000000000E+00  0.00000000000E+00  0.42561509872E-11  0.25126700000E+02  0.25126700000E+02 0.  1.
      622    2    1    2    0    0 -0.23575292514E-02 -0.18752265270E-02  0.11879070696E+02  0.11879877498E+02  0.13841850913E+00 0.  0.
       11    1    1    2    0    0  0.36933859845E-02  0.35218242296E-03  0.12006400774E+00  0.12012240553E+00  0.51109989000E-03 0.  1.
     -623    1    1    2    0    0 -0.13358567330E-02  0.15230441041E-02  0.86528510639E-03  0.25126700097E+02  0.25126700000E+02 0.  1.
     -611    1    3    3    0    0 -0.29606004174E-01  0.18334271825E-01  0.87477349672E+00  0.87552346147E+00  0.10000000000E-01 0. -1.
      611    1    3    3    0    0  0.27248474922E-01 -0.20209498352E-01  0.11004297200E+02  0.11004354036E+02  0.10000000000E-01 0.  1.
</event>
<event>
 7   0  0.6206631E-02  0.9118800E+02  0.7818608E-02  0.1180000E+00
       11   -1    0    0    0    0  0.00000000000E+00  0.00000000000E+00  0.11999999989E+02  0.12000000000E+02  0.51109989000E-03 0.  1.
     -623   -1    0    0    0    0  0.00000000000E+00  0.00000000000E+00  0.42561509872E-11  0.25126700000E+02  0.25126700000E+02 0. -1.
      622    2    1    2    0    0  0.94448779780E-02  0.27591009685E-02  0.11551611605E+02  0.11552012222E+02  0.95702135079E-01 0.  0.
       11    1    1    2    0    0 -0.85858711834E-02 -0.45197748767E-02  0.44788231605E+00  0.44798769604E+00  0.51109989000E-03 0.  1.
     -623    1    1    2    0    0 -0.85900679454E-03  0.17606739082E-02  0.50606811873E-03  0.25126700081E+02  0.25126700000E+02 0. -1.
     -611    1    3    3    0    0  0.50995188743E-01 -0.60720826274E-02  0.58836330003E+01  0.58838656223E+01  0.10000000000E-01 0.  1.
      611    1    3    3    0    0 -0.41550310765E-01  0.88311835959E-02  0.56679786047E+01  0.56681466002E+01  0.10000000000E-01 0.  1.
</event>
<event>
 7   0  0.6206631E-02  0.9118800E+02  0.7818608E-02  0.1180000E+00
       11   -1    0    0    0    0  0.00000000000E+00  0.00000000000E+00  0.11999999989E+02  0.12000000000E+02  0.51109989000E-03 0. -1.
     -623   -1    0    0    0    0  0.00000000000E+00  0.00000000000E+00  0.42561509872E-11  0.25126700000E+02  0.25126700000E+02 0.  1.
      622    2    1    2    0    0  0.33758540139E-01  0.10333953472E-03  0.10918800261E+02  0.10919535885E+02  0.12216852465E+00 0.  0.
       11    1    1    2    0    0  0.21368678630E-02 -0.87551240195E-02  0.10803992659E+01  0.10804369734E+01  0.51109989000E-03 0. -1.
     -623    1    1    2    0    0 -0.35895408002E-01  0.86517844848E-02  0.80046221075E-03  0.25126727142E+02  0.25126700000E+02 0.  1.
     -611    1    3    3    0    0  0.22439723576E-01 -0.73713984727E-02  0.10717724028E+02  0.10717754719E+02  0.10000000000E-01 0. -1.
      611    1    3    3    0    0  0.11318816563E-01  0.74747380075E-02  0.20107623274E+00  0.20178116535E+00  0.10000000000E-01 0.  1.
</event>
<event>
 7   0  0.6206631E-02  0.9118800E+02  0.7818608E-02  0.1180000E+00
       11   -1    0    0    0    0  0.00000000000E+00  0.00000000000E+00  0.11999999989E+02  0.12000000000E+02  0.51109989000E-03 0. -1.
     -623   -1    0    0    0    0  0.00000000000E+00  0.00000000000E+00  0.42561509872E-11  0.25126700000E+02  0.25126700000E+02 0.  1.
      622    2    1    2    0    0 -0.40733190108E-01 -0.13605706189E-01  0.82983296953E+01  0.82986293583E+01  0.55939123049E-01 0.  0.
       11    1    1    2    0    0  0.48882625724E-01 -0.20777404782E-01  0.37009646244E+01  0.37013457855E+01  0.51109989000E-03 0. -1.
     -623    1    1    2    0    0 -0.81494356166E-02  0.34383110971E-01  0.70566937814E-03  0.25126724856E+02  0.25126700000E+02 0.  1.
     -611    1    3    3    0    0 -0.36710260474E-01 -0.20406602228E-01  0.78495174765E+01  0.78496362137E+01  0.10000000000E-01 0. -1.
      611    1    3    3    0    0 -0.40229296339E-02  0.68008960391E-02  0.44881221878E+00  0.44899314458E+00  0.10000000000E-01 0. -1.
</event>
<event>
 7   0  0.6206631E-02  0.9118800E+02  0.7818608E-02  0.1180000E+00
       11   -1    0    0    0    0  0.00000000000E+00  0.00000000000E+00  0.11999999989E+02  0.12000000000E+02  0.51109989000E-03 0.  1.
     -623   -1    0    0    0    0  0.00000000000E+00  0.00000000000E+00  0.42561509872E-11  0.25126700000E+02  0.25126700000E+02 0.  1.
      622    2    1    2    0    0 -0.77616512347E-02 -0.19078969895E-02  0.11972973736E+02  0.11973460148E+02  0.10762877788E+00 0.  0.
       11    1    1    2    0    0 -0.12961453450E-02 -0.28453572446E-02  0.26347968536E-01  0.26537760262E-01  0.51109989000E-03 0.  1.
     -623    1    1    2    0    0  0.90577965796E-02  0.47532542341E-02  0.67828437154E-03  0.25126702091E+02  0.25126700000E+02 0.  1.
     -611    1    3    3    0    0 -0.38327004482E-01 -0.29441721811E-01  0.31659849440E+01  0.31663695994E+01  0.10000000000E-01 0. -1.
      611    1    3    3    0    0  0.30565353248E-01  0.27533824822E-01  0.88069887923E+01  0.88070905491E+01  0.10000000000E-01 0.  1.
</event>
<event>
 7   0  0.6206631E-02  0.9118800E+02  0.7818608E-02  0.1180000E+00
       11   -1    0    0    0    0  0.00000000000E+00  0.00000000000E+00  0.11999999989E+02  0.12000000000E+02  0.51109989000E-03 0. -1.
     -623   -1    0    0    0    0  0.00000000000E+00  0.00000000000E+00  0.42561509872E-11  0.25126700000E+02  0.25126700000E+02 0.  1.
      622    2    1    2    0    0 -0.66075970647E-03  0.25335092346E-02  0.11762903812E+02  0.11763181589E+02  0.80797015522E-01 0.  0.
       11    1    1    2    0    0  0.16467026740E-02 -0.12878442493E-02  0.23680858054E+00  0.23681835912E+00  0.51109989000E-03 0. -1.
     -623    1    1    2    0    0 -0.98594296753E-03 -0.12456649853E-02  0.28759688124E-03  0.25126700052E+02  0.25126700000E+02 0.  1.
     -611    1    3    3    0    0 -0.17131695790E-01 -0.28146734435E-02  0.10992579112E+02  0.10992597371E+02  0.10000000000E-01 0. -1.
      611    1    3    3    0    0  0.16470936084E-01  0.53481826781E-02  0.77032469951E+00  0.77058421829E+00  0.10000000000E-01 0.  1.
</event>
<event>
 7   0  0.6206631E-02  0.9118800E+02  0.7818608E-02  0.1180000E+00
       11   -1    0    0    0    0  0.00000000000E+00  0.00000000000E+00  0.11999999989E+02  0.12000000000E+02  0.51109989000E-03 0.  1.
     -623   -1    0    0    0    0  0.00000000000E+00  0.00000000000E+00  0.42561509872E-11  0.25126700000E+02  0.25126700000E+02 0. -1.
      622    2    1    2    0    0 -0.15124155953E-01  0.10756028740E-01  0.10850113182E+02  0.10850613339E+02  0.10251498861E+00 0.  0.
       11    1    1    2    0    0  0.14244291837E-01 -0.10587375364E-01  0.11492494891E+01  0.11493866372E+01  0.51109989000E-03 0.  1.
     -623    1    1    2    0    0  0.87986411559E-03 -0.16865337615E-03  0.63731758171E-03  0.25126700024E+02  0.25126700000E+02 0. -1.
     -611    1    3    3    0    0 -0.26281020527E-01  0.15322317226E-01  0.10512174588E+01  0.10517050970E+01  0.10000000000E-01 0. -1.
      611    1    3    3    0    0  0.11156864574E-01 -0.45662884857E-02  0.97988957237E+01  0.97989082417E+01  0.10000000000E-01 0.  1.
</event>
<event>
 7   0  0.6206631E-02  0.9118800E+02  0.7818608E-02  0.1180000E+00
       11   -1    0    0    0    0  0.00000000000E+00  0.00000000000E+00  0.11999999989E+02  0.12000000000E+02  0.51109989000E-03 0.  1.
     -623   -1    0    0    0    0  0.00000000000E+00  0.00000000000E+00  0.42561509872E-11  0.25126700000E+02  0.25126700000E+02 0.  1.
      622    2    1    2    0    0  0.18320074747E-01  0.51991300676E-04  0.11176840387E+02  0.11177175480E+02  0.84587521044E-01 0.  0.
       11    1    1    2    0    0 -0.13852219826E-01 -0.10699484034E-01  0.82263551534E+00  0.82282186120E+00  0.51109989000E-03 0.  1.
     -623    1    1    2    0    0 -0.44678549207E-02  0.10647492733E-01  0.52408672313E-03  0.25126702659E+02  0.25126700000E+02 0.  1.
     -611    1    3    3    0    0  0.27037520136E-01 -0.33454187872E-01  0.81664847962E+01  0.81666041986E+01  0.10000000000E-01 0.  1.
      611    1    3    3    0    0 -0.87174453886E-02  0.33506179173E-01  0.30103555908E+01  0.30105712815E+01  0.10000000000E-01 0. -1.
</event>
<event>
 7   0  0.6206631E-02  0.9118800E+02  0.7818608E-02  0.1180000E+00
       11   -1    0    0    0    0  0.00000000000E+00  0.00000000000E+00  0.11999999989E+02  0.12000000000E+02  0.51109989000E-03 0. -1.
     -623   -1    0    0    0    0  0.00000000000E+00  0.00000000000E+00  0.42561509872E-11  0.25126700000E+02  0.25126700000E+02 0.  1.
      622    2    1    2    0    0  0.46239141748E-02 -0.13381739334E-02  0.11804283762E+02  0.11804728202E+02  0.10232110049E+00 0.  0.
       11    1    1    2    0    0 -0.61398002317E-03  0.56020633553E-02  0.19518910153E+00  0.19527111068E+00  0.51109989000E-03 0. -1.
     -623    1    1    2    0    0 -0.40099341517E-02 -0.42638894219E-02  0.52712510652E-03  0.25126700687E+02  0.25126700000E+02 0.  1.
     -611    1    3    3    0    0  0.35723830685E-01  0.12719480655E-01  0.20246714102E+01  0.20250511837E+01  0.10000000000E-01 0.  1.
      611    1    3    3    0    0 -0.31099916510E-01 -0.14057654588E-01  0.97796123523E+01  0.97796770183E+01  0.10000000000E-01 0. -1.
</event>
<event>
 7   0  0.6206631E-02  0.9118800E+02  0.7818608E-02  0.1180000E+00
       11   -1    0    0    0    0  0.00000000000E+00  0.00000000000E+00  0.11999999989E+02  0.12000000000E+02  0.51109989000E-03 0. -1.
     -623   -1    0    0    0    0  0.00000000000E+00  0.00000000000E+00  0.42561509872E-11  0.25126700000E+02  0.25126700000E+02 0. -1.
      622    2    1    2    0    0  0.21816611045E-01  0.33006587483E-01  0.10180614466E+02  0.10181170543E+02  0.98779157241E-01 0.  0.
       11    1    1    2    0    0 -0.54732971397E-01  0.32449798851E-01  0.18176091050E+01  0.18187225757E+01  0.51109989000E-03 0. -1.
     -623    1    1    2    0    0  0.32916360352E-01 -0.65456386334E-01  0.17764185914E-02  0.25126806882E+02  0.25126700000E+02 0. -1.
     -611    1    3    3    0    0 -0.20321575203E-01 -0.25106514166E-01  0.34676191222E+01  0.34677839725E+01  0.10000000000E-01 0.  1.
      611    1    3    3    0    0  0.42138186248E-01  0.58113101649E-01  0.67129953434E+01  0.67133865701E+01  0.10000000000E-01 0. -1.
</event>
<event>
 7   0  0.6206631E-02  0.9118800E+02  0.7818608E-02  0.1180000E+00
       11   -1    0    0    0    0  0.00000000000E+00  0.00000000000E+00  0.11999999989E+02  0.12000000000E+02  0.51109989000E-03 0. -1.
     -623   -1    0    0    0    0  0.00000000000E+00  0.00000000000E+00  0.42561509872E-11  0.25126700000E+02  0.25126700000E+02 0. -1.
      622    2    1    2    0    0 -0.16926946007E-01  0.23124226784E-01  0.11602955779E+02  0.11603615894E+02  0.12040661170E+00 0.  0.
       11    1    1    2    0    0  0.20093239177E-01 -0.39066648888E-01  0.39393633641E+00  0.39637865695E+00  0.51109989000E-03 0. -1.
     -623    1    1    2    0    0 -0.31662931700E-02  0.15942422104E-01  0.31078738319E-02  0.25126705449E+02  0.25126700000E+02 0. -1.
     -611    1    3    3    0    0  0.12106558498E-01  0.59914121202E-01  0.37294748644E+01  0.37299891467E+01  0.10000000000E-01 0.  1.
      611    1    3    3    0    0 -0.29033504505E-01 -0.36789894418E-01  0.78734809145E+01  0.78736267471E+01  0.10000000000E-01 0. -1.
</event>
<event>
 7   0  0.6206631E-02  0.9118800E+02  0.7818608E-02  0.1180000E+00
       11   -1    0    0    0    0  0.00000000000E+00  0.00000000000E+00  0.11999999989E+02  0.12000000000E+02  0.51109989000E-03 0. -1.
     -623   -1    0    0    0    0  0.00000000000E+00  0.00000000000E+00  0.42561509872E-11  0.25126700000E+02  0.25126700000E+02 0.  1.
      622    2    1    2    0    0 -0.27107140589E-02  0.16551680913E-01  0.86378946334E+01  0.86387355415E+01  0.11935976022E+00 0.  0.
       11    1    1    2    0    0  0.31240640366E-02 -0.18928939473E-01  0.33612095365E+01  0.33612643267E+01  0.51109989000E-03 0. -1.
     -623    1    1    2    0    0 -0.41334997773E-03  0.23772585603E-02  0.89581926771E-03  0.25126700132E+02  0.25126700000E+02 0.  1.
     -611    1    3    3    0    0 -0.46477168383E-01 -0.27695436557E-01  0.31681658956E+01  0.31686436067E+01  0.10000000000E-01 0. -1.
      611    1    3    3    0    0  0.43766454324E-01  0.44247117470E-01  0.54697287378E+01  0.54700919348E+01  0.10000000000E-01 0.  1.
</event>
<event>
 7   0  0.6206631E-02  0.9118800E+02  0.7818608E-02  0.1180000E+00
       11   -1    0    0    0    0  0.00000000000E+00  0.00000000000E+00  0.11999999989E+02  0.12000000000E+02  0.51109989000E-03 0.  1.
     -623   -1    0    0    0    0  0.00000000000E+00  0.00000000000E+00  0.42561509872E-11  0.25126700000E+02  0.25126700000E+02 0. -1.
      622    2    1    2    0    0 -0.85037235190E-02  0.27199139211E-02  0.10302997453E+02  0.10303247456E+02  0.71217353671E-01 0.  0.
       11    1    1    2    0    0  0.81489134545E-02 -0.16139619723E-02  0.16967321029E+01  0.16967525158E+01  0.51109989000E-03 0.  1.
     -623    1    1    2    0    0  0.35481006450E-03 -0.11059519488E-02  0.27043331056E-03  0.25126700028E+02  0.25126700000E+02 0. -1.
     -611    1    3    3    0    0 -0.14870578919E-02 -0.19018707627E-01  0.89150609622E+01  0.89150869812E+01  0.10000000000E-01 0.  1.
      611    1    3    3    0    0 -0.70166656271E-02  0.21738621548E-01  0.13879364907E+01  0.13881604747E+01  0.10000000000E-01 0. -1.
</event>
<event>
 7   0  0.6206631E-02  0.9118800E+02  0.7818608E-02  0.1180000E+00
       11   -1    0    0    0    0  0.00000000000E+00  0.00000000000E+00  0.11999999989E+02  0.12000000000E+02  0.51109989000E-03 0. -1.
     -623   -1    0    0    0    0  0.00000000000E+00  0.00000000000E+00  0.42561509872E-11  0.25126700000E+02  0.25126700000E+02 0. -1.
      622    2    1    2    0    0  0.17169999341E-02  0.56061242346E-02  0.11971911122E+02  0.11972415735E+02  0.10976448808E+00 0.  0.
       11    1    1    2    0    0  0.20776272422E-02 -0.26942844162E-02  0.27368395232E-01  0.27583799306E-01  0.51109989000E-03 0. -1.
     -623    1    1    2    0    0 -0.37946271763E-02 -0.29118398184E-02  0.72047181669E-03  0.25126700466E+02  0.25126700000E+02 0. -1.
     -611    1    3    3    0    0  0.41317359885E-01 -0.10663299699E-01  0.23777624113E+01  0.23781662925E+01  0.10000000000E-01 0.  1.
      611    1    3    3    0    0 -0.39600359951E-01  0.16269423933E-01  0.95941487108E+01  0.95942494426E+01  0.10000000000E-01 0. -1.
</event>
<event>
 7   0  0.6206631E-02  0.9118800E+02  0.7818608E-02  0.1180000E+00
       11   -1    0    0    0    0  0.00000000000E+00  0.00000000000E+00  0.11999999989E+02  0.12000000000E+02  0.51109989000E-03 0. -1.
     -623   -1    0    0    0    0  0.00000000000E+00  0.00000000000E+00  0.42561509872E-11  0.25126700000E+02  0.25126700000E+02 0.  1.
      622    2    1    2    0    0 -0.24026209525E-01  0.30757470712E-01  0.11304413832E+02  0.11305024508E+02  0.11083214261E+00 0.  0.
       11    1    1    2    0    0  0.22050243971E-01 -0.37089451992E-01  0.69363355635E+00  0.69497454085E+00  0.51109989000E-03 0. -1.
     -623    1    1    2    0    0  0.19759655541E-02  0.63319812796E-02  0.19526011596E-02  0.25126700951E+02  0.25126700000E+02 0.  1.
     -611    1    3    3    0    0 -0.20201350499E-01  0.20553961229E-01  0.11112417235E+02  0.11112459105E+02  0.10000000000E-01 0.  1.
      611    1    3    3    0    0 -0.38248590258E-02  0.10203509483E-01  0.19199659636E+00  0.19256540231E+00  0.10000000000E-01 0. -1.
</event>
<event>
 7   0  0.6206631E-02  0.9118800E+02  0.7818608E-02  0.1180000E+00
       11   -1    0    0    0    0  0.00000000000E+00  0.00000000000E+00  0.11999999989E+02  0.12000000000E+02  0.51109989000E-03 0. -1.
     -623   -1    0    0    0    0  0.00000000000E+00  0.00000000000E+00  0.42561509872E-11  0.25126700000E+02  0.25126700000E+02 0. -1.
      622    2    1    2    0    0  0.20448368266E-01  0.17549198702E-01  0.83029301001E+01  0.83035190169E+01  0.95150970287E-01 0.  0.
       11    1    1    2    0    0 -0.93984941104E-02 -0.30080575289E-02  0.36964611310E+01  0.36964743384E+01  0.51109989000E-03 0. -1.
     -623    1    1    2    0    0 -0.11049874156E-01 -0.14541141174E-01  0.60875795308E-03  0.25126706645E+02  0.25126700000E+02 0. -1.
     -611    1    3    3    0    0  0.35405831085E-01 -0.30338311114E-01  0.41385985453E+01  0.41388732652E+01  0.10000000000E-01 0. -1.
      611    1    3    3    0    0 -0.14957462819E-01  0.47887509817E-01  0.41643315548E+01  0.41646457517E+01  0.10000000000E-01 0.  1.
</event>
<event>
 7   0  0.6206631E-02  0.9118800E+02  0.7818608E-02  0.1180000E+00
       11   -1    0    0    0    0  0.00000000000E+00  0.00000000000E+00  0.11999999989E+02  0.12000000000E+02  0.51109989000E-03 0. -1.
     -623   -1    0    0    0    0  0.00000000000E+00  0.00000000000E+00  0.42561509872E-11  0.25126700000E+02  0.25126700000E+02 0.  1.
      622    2    1    2    0    0  0.11341894308E-01 -0.99040645744E-02  0.11962595870E+02  0.11963262041E+02  0.12534745821E+00 0.  0.
       11    1    1    2    0    0 -0.11077944198E-01  0.62881168773E-02  0.34454654713E-01  0.36737524632E-01  0.51109989000E-03 0. -1.
     -623    1    1    2    0    0 -0.26395011039E-03  0.36159476971E-02  0.29494647866E-02  0.25126700435E+02  0.25126700000E+02 0.  1.
     -611    1    3    3    0    0  0.44769674478E-01  0.31230357422E-01  0.90275743976E+01  0.90277449655E+01  0.10000000000E-01 0. -1.
      611    1    3    3    0    0 -0.33427780169E-01 -0.41134421996E-01  0.29350214720E+01  0.29355170751E+01  0.10000000000E-01 0.  1.
</event>
<event>
 7   0  0.6206631E-02  0.9118800E+02  0.7818608E-02  0.1180000E+00
       11   -1    0    0    0    0  0.00000000000E+00  0.00000000000E+00  0.11999999989E+02  0.12000000000E+02  0.51109989000E-03 0.  1.
     -623   -1    0    0    0    0  0.00000000000E+00  0.00000000000E+00  0.42561509872E-11  0.25126700000E+02  0.25126700000E+02 0. -1.
      622    2    1    2    0    0  0.21293316840E-02 -0.11708398871E-02  0.11923671559E+02  0.11923769659E+02  0.48306548487E-01 0.  0.
       11    1    1    2    0    0 -0.26403511790E-02  0.26596192710E-02  0.76136397606E-01  0.76230291175E-01  0.51109989000E-03 0.  1.
     -623    1    1    2    0    0  0.51101949495E-03 -0.14887793839E-02  0.19203245465E-03  0.25126700050E+02  0.25126700000E+02 0. -1.
     -611    1    3    3    0    0  0.44027903920E-03  0.15325593312E-01  0.95988330799E+01  0.95988505335E+01  0.10000000000E-01 0.  1.
      611    1    3    3    0    0  0.16890526448E-02 -0.16496433199E-01  0.23248384791E+01  0.23249191253E+01  0.10000000000E-01 0. -1.
</event>
<event>
 7   0  0.6206631E-02  0.9118800E+02  0.7818608E-02  0.1180000E+00
       11   -1    0    0    0    0  0.00000000000E+00  0.00000000000E+00  0.11999999989E+02  0.12000000000E+02  0.51109989000E-03 0. -1.
     -623   -1    0    0    0    0  0.00000000000E+00  0.00000000000E+00  0.42561509872E-11  0.25126700000E+02  0.25126700000E+02 0.  1.
      622    2    1    2    0    0 -0.63843470408E-03 -0.29031823766E-02  0.11785682461E+02  0.11785814135E+02  0.55632040708E-01 0.  0.
       11    1    1    2    0    0  0.18110106036E-02  0.31992601200E-02  0.21415367338E+00  0.21418583536E+00  0.51109989000E-03 0. -1.
     -623    1    1    2    0    0 -0.11725758996E-02 -0.29607774345E-03  0.16385502890E-03  0.25126700030E+02  0.25126700000E+02 0.  1.
     -611    1    3    3    0    0  0.13212470195E-01 -0.38183088777E-02  0.12270795798E+01  0.12271973941E+01  0.10000000000E-01 0.  1.
      611    1    3    3    0    0 -0.13850904899E-01  0.91512650111E-03  0.10558602881E+02  0.10558616741E+02  0.10000000000E-01 0. -1.
</event>
<event>
 7   0  0.6206631E-02  0.9118800E+02  0.7818608E-02  0.1180000E+00
       11   -1    0    0    0    0  0.00000000000E+00  0.00000000000E+00  0.11999999989E+02  0.12000000000E+02  0.51109989000E-03 0. -1.
     -623   -1    0    0    0    0  0.00000000000E+00  0.00000000000E+00  0.42561509872E-11  0.25126700000E+02  0.25126700000E+02 0. -1.
      622    2    1    2    0    0  0.28350534577E-02  0.34410564059E-02  0.11965502435E+02  0.11965827359E+02  0.88068081337E-01 0.  0.
       11    1    1    2    0    0 -0.12826487597E-02 -0.33885100285E-02  0.33976128834E-01  0.34172587577E-01  0.51109989000E-03 0. -1.
     -623    1    1    2    0    0 -0.15524046979E-02 -0.52546377413E-04  0.52142536624E-03  0.25126700053E+02  0.25126700000E+02 0. -1.
     -611    1    3    3    0    0 -0.24099515540E-01 -0.20754356887E-01  0.93055930012E+01  0.93056527248E+01  0.10000000000E-01 0. -1.
      611    1    3    3    0    0  0.26934568998E-01  0.24195413293E-01  0.26599094337E+01  0.26601746342E+01  0.10000000000E-01 0.  1.
</event>
<event>
 7   0  0.6206631E-02  0.9118800E+02  0.7818608E-02  0.1180000E+00
       11   -1    0    0    0    0  0.00000000000E+00  0.00000000000E+00  0.11999999989E+02  0.12000000000E+02  0.51109989000E-03 0.  1.
     -623   -1    0    0    0    0  0.00000000000E+00  0.00000000000E+00  0.42561509872E-11  0.25126700000E+02  0.25126700000E+02 0. -1.
      622    2    1    2    0    0  0.63156580600E-01 -0.20105843961E-01  0.11590413084E+02  0.11591306582E+02  0.12774907225E+00 0.  0.
       11    1    1    2    0    0 -0.56781447999E-01  0.41639639798E-01  0.40257055521E+00  0.40868240185E+00  0.51109989000E-03 0.  1.
     -623    1    1    2    0    0 -0.63751326004E-02 -0.21533795838E-01  0.70163496200E-02  0.25126711016E+02  0.25126700000E+02 0. -1.
     -611    1    3    3    0    0  0.62928667768E-01 -0.62065940600E-01  0.53066709616E+01  0.53074164047E+01  0.10000000000E-01 0. -1.
      611    1    3    3    0    0  0.22791283147E-03  0.41960096640E-01  0.62837421227E+01  0.62838901778E+01  0.10000000000E-01 0.  1.
</event>
<event>
 7   0  0.6206631E-02  0.9118800E+02  0.7818608E-02  0.1180000E+00
       11   -1    0    0    0    0  0.00000000000E+00  0.00000000000E+00  0.11999999989E+02  0.12000000000E+02  0.51109989000E-03 0. -1.
     -623   -1    0    0    0    0  0.00000000000E+00  0.00000000000E+00  0.42561509872E-11  0.25126700000E+02  0.25126700000E+02 0. -1.
      622    2    1    2    0    0 -0.90740838347E-02 -0.68303495354E-02  0.10850521282E+02  0.10850939160E+02  0.94549348308E-01 0.  0.
       11    1    1    2    0    0  0.11379729372E-01  0.32218164080E-02  0.11489994888E+01  0.11490604705E+01  0.51109989000E-03 0. -1.
     -623    1    1    2    0    0 -0.23056455368E-02  0.36085331275E-02  0.47921869113E-03  0.25126700369E+02  0.25126700000E+02 0. -1.
     -611    1    3    3    0    0  0.38675399447E-01 -0.14625883594E-01  0.36388450702E+01  0.36390937262E+01  0.10000000000E-01 0.  1.
      611    1    3    3    0    0 -0.47749483282E-01  0.77955340587E-02  0.72116762114E+01  0.72118454338E+01  0.10000000000E-01 0. -1.
</event>
<event>
 7   0  0.6206631E-02  0.9118800E+02  0.7818608E-02  0.1180000E+00
       11   -1    0    0    0    0  0.00000000000E+00  0.00000000000E+00  0.11999999989E+02  0.12000000000E+02  0.51109989000E-03 0.  1.
     -623   -1    0    0    0    0  0.00000000000E+00  0.00000000000E+00  0.42561509872E-11  0.25126700000E+02  0.25126700000E+02 0. -1.
      622    2    1    2    0    0 -0.32057253910E-01 -0.22566252924E-01  0.99982192596E+01  0.99989058457E+01  0.11042121446E+00 0.  0.
       11    1    1    2    0    0  0.32922024111E-02  0.24747424432E-01  0.20009217740E+01  0.20010775798E+01  0.51109989000E-03 0.  1.
     -623    1    1    2    0    0  0.28765051499E-01 -0.21811715073E-02  0.85895550454E-03  0.25126716574E+02  0.25126700000E+02 0. -1.
     -611    1    3    3    0    0 -0.17574743637E-01  0.99782588651E-02  0.41293466574E+00  0.41354984637E+00  0.10000000000E-01 0. -1.
      611    1    3    3    0    0 -0.14482510273E-01 -0.32544511789E-01  0.95852845939E+01  0.95853559993E+01  0.10000000000E-01 0.  1.
</event>
<event>
 7   0  0.6206631E-02  0.9118800E+02  0.7818608E-02  0.1180000E+00
       11   -1    0    0    0    0  0.00000000000E+00  0.00000000000E+00  0.11999999989E+02  0.12000000000E+02  0.51109989000E-03 0.  1.
     -623   -1    0    0    0    0  0.00000000000E+00  0.00000000000E+00  0.42561509872E-11  0.25126700000E+02  0.25126700000E+02 0.  1.
      622    2    1    2    0    0  0.87366511292E-02 -0.25023304318E-02  0.11912675404E+02  0.11913128737E+02  0.10352990141E+00 0.  0.
       11    1    1    2    0    0 -0.84021178954E-02  0.34089131315E-02  0.86395211755E-01  0.86871227177E-01  0.51109989000E-03 0.  1.
     -623    1    1    2    0    0 -0.33453323381E-03 -0.90658269976E-03  0.92937364485E-03  0.25126700036E+02  0.25126700000E+02 0.  1.
     -611    1    3    3    0    0 -0.25778020547E-02 -0.44819752455E-01  0.88944592737E+01  0.88945781928E+01  0.10000000000E-01 0.  1.
      611    1    3    3    0    0  0.11314453184E-01  0.42317422024E-01  0.30182161300E+01  0.30185505443E+01  0.10000000000E-01 0. -1.
</event>
<event>
 7   0  0.6206631E-02  0.9118800E+02  0.7818608E-02  0.1180000E+00
       11   -1    0    0    0    0  0.00000000000E+00  0.00000000000E+00  0.11999999989E+02  0.12000000000E+02  0.51109989000E-03 0. -1.
     -623   -1    0    0    0    0  0.00000000000E+00  0.00000000000E+00  0.42561509872E-11  0.25126700000E+02  0.25126700000E+02 0. -1.
      622    2    1    2    0    0 -0.53067330912E-01  0.54027270108E-01  0.24332032816E+01  0.24363002427E+01  0.96672515675E-01 0.  0.
       11    1    1    2    0    0  0.53352088514E-01 -0.49694260433E-01  0.95634212136E+01  0.95636991553E+01  0.51109989000E-03 0. -1.
     -623    1    1    2    0    0 -0.28475760199E-03 -0.43330096753E-02  0.33754939239E-02  0.25126700602E+02  0.25126700000E+02 0. -1.
     -611    1    3    3    0    0 -0.46258720208E-01  0.24322311555E-01  0.22254156023E+01  0.22260516721E+01  0.10000000000E-01 0.  1.
      611    1    3    3    0    0 -0.68086107034E-02  0.29704958553E-01  0.20778767933E+00  0.21024857056E+00  0.10000000000E-01 0. -1.
</event>
<event>
 7   0  0.6206631E-02  0.9118800E+02  0.7818608E-02  0.1180000E+00
       11   -1    0    0    0    0  0.00000000000E+00  0.00000000000E+00  0.11999999989E+02  0.12000000000E+02  0.51109989000E-03 0.  1.
     -623   -1    0    0    0    0  0.00000000000E+00  0.00000000000E+00  0.42561509872E-11  0.25126700000E+02  0.25126700000E+02 0. -1.
      622    2    1    2    0    0 -0.29812998952E-02 -0.10181681645E-01  0.11932091092E+02  0.11932349483E+02  0.77806244830E-01 0.  0.
       11    1    1    2    0    0  0.19987263366E-02 -0.25044468920E-02  0.67569429817E-01  0.67647292851E-01  0.51109989000E-03 0.  1.
     -623    1    1    2    0    0  0.98257355854E-03  0.12686128537E-01  0.33946759897E-03  0.25126703224E+02  0.25126700000E+02 0. -1.
     -611    1    3    3    0    0 -0.26844382263E-01  0.14485952419E-01  0.27262519143E+01  0.27264408968E+01  0.10000000000E-01 0. -1.
      611    1    3    3    0    0  0.23863082368E-01 -0.24667634065E-01  0.92058391774E+01  0.92059085863E+01  0.10000000000E-01 0.  1.
</event>
<event>
 7   0  0.6206631E-02  0.9118800E+02  0.7818608E-02  0.1180000E+00
       11   -1    0    0    0    0  0.00000000000E+00  0.00000000000E+00  0.11999999989E+02  0.12000000000E+02  0.51109989000E-03 0.  1.
     -623   -1    0    0    0    0  0.00000000000E+00  0.00000000000E+00  0.42561509872E-11  0.25126700000E+02  0.25126700000E+02 0. -1.
      622    2    1    2    0    0 -0.78920100432E-02  0.31272509372E-04  0.11448853147E+02  0.11449482971E+02  0.11983169463E+00 0.  0.
       11    1    1    2    0    0  0.27126250661E-01 -0.19405069740E-01  0.54949063573E+00  0.55050214367E+00  0.51109989000E-03 0.  1.
     -623    1    1    2    0    0 -0.19234240618E-01  0.19373797231E-01  0.16562063977E-02  0.25126714885E+02  0.25126700000E+02 0. -1.
     -611    1    3    3    0    0 -0.50421220276E-01 -0.11936872504E-01  0.93130248223E+01  0.93131743315E+01  0.10000000000E-01 0.  1.
      611    1    3    3    0    0  0.42529210233E-01  0.11968145013E-01  0.21358283247E+01  0.21363086394E+01  0.10000000000E-01 0. -1.
</event>
<event>
 7   0  0.6206631E-02  0.9118800E+02  0.7818608E-02  0.1180000E+00
       11   -1    0    0    0    0  0.00000000000E+00  0.00000000000E+00  0.11999999989E+02  0.12000000000E+02  0.51109989000E-03 0. -1.
     -623   -1    0    0    0    0  0.00000000000E+00  0.00000000000E+00  0.42561509872E-11  0.25126700000E+02  0.25126700000E+02 0.  1.
      622    2    1    2    0    0 -0.10052629269E+00 -0.33475368239E-01  0.85516245995E+01  0.85535091222E+01  0.14494439168E+00 0.  0.
       11    1    1    2    0    0 -0.39224827412E-01  0.48696686450E-01  0.34455300851E+01  0.34460974715E+01  0.51109989000E-03 0. -1.
     -623    1    1    2    0    0  0.13975112010E+00 -0.15221318211E-01  0.28453044960E-02  0.25127093406E+02  0.25126700000E+02 0.  1.
     -611    1    3    3    0    0 -0.41347048928E-01  0.12216343171E-01  0.64152785559E+00  0.64305272489E+00  0.10000000000E-01 0.  1.
      611    1    3    3    0    0 -0.59179243759E-01 -0.45691711411E-01  0.79100967440E+01  0.79104563973E+01  0.10000000000E-01 0. -1.
</event>
<event>
 7   0  0.6206631E-02  0.9118800E+02  0.7818608E-02  0.1180000E+00
       11   -1    0    0    0    0  0.00000000000E+00  0.00000000000E+00  0.11999999989E+02  0.12000000000E+02  0.51109989000E-03 0. -1.
     -623   -1    0    0    0    0  0.00000000000E+00  0.00000000000E+00  0.42561509872E-11  0.25126700000E+02  0.25126700000E+02 0. -1.
      622    2    1    2    0    0  0.10495905464E-01 -0.13101641287E-01  0.11301501141E+02  0.11301892055E+02  0.92488700250E-01 0.  0.
       11    1    1    2    0    0 -0.77906381554E-03  0.67279246846E-02  0.69807221198E+00  0.69810525443E+00  0.51109989000E-03 0. -1.
     -623    1    1    2    0    0 -0.97168416484E-02  0.63737166026E-02  0.42663613419E-03  0.25126702691E+02  0.25126700000E+02 0. -1.
     -611    1    3    3    0    0 -0.28878127911E-01  0.24089802681E-01  0.47559279153E+01  0.47560871102E+01  0.10000000000E-01 0. -1.
      611    1    3    3    0    0  0.39374033375E-01 -0.37191443968E-01  0.65455732257E+01  0.65458049445E+01  0.10000000000E-01 0.  1.
</event>
<event>
 7   0  0.6206631E-02  0.9118800E+02  0.7818608E-02  0.1180000E+00
       11   -1    0    0    0    0  0.00000000000E+00  0.00000000000E+00  0.11999999989E+02  0.12000000000E+02  0.51109989000E-03 0.  1.
     -623   -1    0    0    0    0  0.00000000000E+00  0.00000000000E+00  0.42561509872E-11  0.25126700000E+02  0.25126700000E+02 0.  1.
      622    2    1    2    0    0  0.77584236145E-03 -0.47254720898E-03  0.11994195799E+02  0.11994775786E+02  0.11795108035E+00 0.  0.
       11    1    1    2    0    0 -0.22943884068E-02 -0.10610910275E-02  0.45431004515E-02  0.52240900802E-02  0.51109989000E-03 0. -1.
     -623    1    1    2    0    0  0.15185460453E-02  0.15336382365E-02  0.12610897078E-02  0.25126700124E+02  0.25126700000E+02 0.  1.
     -611    1    3    3    0    0 -0.49643770377E-01  0.19741458164E-01  0.81741103314E+01  0.81742910359E+01  0.10000000000E-01 0.  1.
      611    1    3    3    0    0  0.50419612739E-01 -0.20214005373E-01  0.38200854675E+01  0.38204847497E+01  0.10000000000E-01 0. -1.
</event>
<event>
 6   0  0.6206631E-02  0.9118800E+02  0.7818608E-02  0.1180000E+00
       11   -1    0    0    0    0  0.00000000000E+00  0.00000000000E+00  0.11999999989E+02  0.12000000000E+02  0.51109989000E-03 0. -1.
     -623   -1    0    0    0    0  0.00000000000E+00  0.00000000000E+00  0.42561509872E-11  0.25126700000E+02  0.25126700000E+02 0. -1.
       11    1    1    2    0    0  0.80644847228E-01  0.41616469825E-02  0.10947889031E+01  0.10977631413E+01  0.51109989000E-03 0. -1.
     -623    1    1    2    0    0 -0.25030189049E-01 -0.22499190805E-02  0.50034585242E-02  0.25126713066E+02  0.25126700000E+02 0. -1.
     -611    1    1    2    0    0 -0.10650696305E+00  0.75758115330E-04  0.31030309296E+01  0.31048743435E+01  0.10000000000E-01 0. -1.
      611    1    1    2    0    0  0.50892304874E-01 -0.19874860174E-02  0.77971766979E+01  0.77973494493E+01  0.10000000000E-01 0.  1.
</event>
<event>
 7   0  0.6206631E-02  0.9118800E+02  0.7818608E-02  0.1180000E+00
       11   -1    0    0    0    0  0.00000000000E+00  0.00000000000E+00  0.11999999989E+02  0.12000000000E+02  0.51109989000E-03 0.  1.
     -623   -1    0    0    0    0  0.00000000000E+00  0.00000000000E+00  0.42561509872E-11  0.25126700000E+02  0.25126700000E+02 0. -1.
      622    2    1    2    0    0  0.91977952970E-03  0.16352546175E-02  0.11998144167E+02  0.11998581262E+02  0.10239786831E+00 0.  0.
       11    1    1    2    0    0 -0.59475463125E-03  0.91055837524E-03  0.75385989778E-03  0.14185829256E-02  0.51109989000E-03 0.  1.
     -623    1    1    2    0    0 -0.32502489845E-03 -0.25458129927E-02  0.11019621663E-02  0.25126700155E+02  0.25126700000E+02 0. -1.
     -611    1    3    3    0    0 -0.47087461958E-01  0.59565762766E-03  0.78403217989E+01  0.78404695965E+01  0.10000000000E-01 0.  1.
      611    1    3    3    0    0  0.48007241488E-01  0.10395969898E-02  0.41578223681E+01  0.41581116653E+01  0.10000000000E-01 0. -1.
</event>
<event>
 7   0  0.6206631E-02  0.9118800E+02  0.7818608E-02  0.1180000E+00
       11   -1    0    0    0    0  0.00000000000E+00  0.00000000000E+00  0.11999999989E+02  0.12000000000E+02  0.51109989000E-03 0. -1.
     -623   -1    0    0    0    0  0.00000000000E+00  0.00000000000E+00  0.42561509872E-11  0.25126700000E+02  0.25126700000E+02 0.  1.
      622    2    1    2    0    0 -0.25640793890E-01 -0.17818827700E-02  0.11981701527E+02  0.11982377458E+02  0.12464925381E+00 0.  0.
       11    1    1    2    0    0 -0.89055286029E-02 -0.63087795869E-02  0.13794459187E-01  0.17597086889E-01  0.51109989000E-03 0. -1.
     -623    1    1    2    0    0  0.34546322493E-01  0.80906623569E-02  0.45040025863E-02  0.25126725455E+02  0.25126700000E+02 0.  1.
     -611    1    3    3    0    0 -0.43791262452E-01 -0.54488988350E-01  0.65426605432E+01  0.65430416251E+01  0.10000000000E-01 0.  1.
      611    1    3    3    0    0  0.18150468563E-01  0.52707105580E-01  0.54390409841E+01  0.54393358331E+01  0.10000000000E-01 0. -1.
</event>
<event>
 7   0  0.6206631E-02  0.9118800E+02  0.7818608E-02  0.1180000E+00
       11   -1    0    0    0    0  0.00000000000E+00  0.00000000000E+00  0.11999999989E+02  0.12000000000E+02  0.51109989000E-03 0.  1.
     -623   -1    0    0    0    0  0.00000000000E+00  0.00000000000E+00  0.42561509872E-11  0.25126700000E+02  0.25126700000E+02 0. -1.
      622    2    1    2    0    0  0.13541879034E-01  0.97300488367E-03  0.11746219582E+02  0.11746678198E+02  0.10290718392E+00 0.  0.
       11    1    1    2    0    0 -0.15361506324E-01  0.65924207025E-03  0.25285409813E+00  0.25332166635E+00  0.51109989000E-03 0.  1.
     -623    1    1    2    0    0  0.18196272895E-02 -0.16322469539E-02  0.92630926849E-03  0.25126700136E+02  0.25126700000E+02 0. -1.
     -611    1    3    3    0    0  0.52146926048E-01  0.20270465365E-01  0.52522306808E+01  0.52525381786E+01  0.10000000000E-01 0. -1.
      611    1    3    3    0    0 -0.38605047014E-01 -0.19297460481E-01  0.64939889009E+01  0.64941400190E+01  0.10000000000E-01 0.  1.
</event>
<event>
 7   0  0.6206631E-02  0.9118800E+02  0.7818608E-02  0.1180000E+00
       11   -1    0    0    0    0  0.00000000000E+00  0.00000000000E+00  0.11999999989E+02  0.12000000000E+02  0.51109989000E-03 0. -1.
     -623   -1    0    0    0    0  0.00000000000E+00  0.00000000000E+00  0.42561509872E-11  0.25126700000E+02  0.25126700000E+02 0.  1.
      622    2    1    2    0    0  0.11226942276E-02 -0.54073532447E-03  0.11833740347E+02  0.11833791211E+02  0.34673995584E-01 0.  0.
       11    1    1    2    0    0 -0.10377774828E-02  0.54594251027E-03  0.16620386589E+00  0.16620878826E+00  0.51109989000E-03 0. -1.
     -623    1    1    2    0    0 -0.84916744847E-04 -0.52071857989E-05  0.55776266709E-04  0.25126700000E+02  0.25126700000E+02 0.  1.
     -611    1    3    3    0    0 -0.16741599717E-03 -0.12979403148E-03  0.10731753234E+02  0.10731757895E+02  0.10000000000E-01 0. -1.
      611    1    3    3    0    0  0.12901102248E-02 -0.41094129299E-03  0.11019871127E+01  0.11020333161E+01  0.10000000000E-01 0. -1.
</event>
<event>
 7   0  0.6206631E-02  0.9118800E+02  0.7818608E-02  0.1180000E+00
       11   -1    0    0    0    0  0.00000000000E+00  0.00000000000E+00  0.11999999989E+02  0.12000000000E+02  0.51109989000E-03 0.  1.
     -623   -1    0    0    0    0  0.00000000000E+00  0.00000000000E+00  0.42561509872E-11  0.25126700000E+02  0.25126700000E+02 0. -1.
      622    2    1    2    0    0  0.11399659601E-01  0.12758885900E-02  0.11190923643E+02  0.11191078383E+02  0.57721667678E-01 0.  0.
       11    1    1    2    0    0 -0.98997968638E-02 -0.57161908625E-02  0.80884023888E+00  0.80892117915E+00  0.51109989000E-03 0.  1.
     -623    1    1    2    0    0 -0.14998627372E-02  0.44403022725E-02  0.23610670617E-03  0.25126700438E+02  0.25126700000E+02 0. -1.
     -611    1    3    3    0    0  0.20516370308E-01  0.19191615285E-02  0.18094367530E+01  0.18095817107E+01  0.10000000000E-01 0.  1.
      611    1    3    3    0    0 -0.91167107072E-02 -0.64327293848E-03  0.93814868905E+01  0.93814966719E+01  0.10000000000E-01 0.  1.
</event>
<event>
 7   0  0.6206631E-02  0.9118800E+02  0.7818608E-02  0.1180000E+00
       11   -1    0    0    0    0  0.00000000000E+00  0.00000000000E+00  0.11999999989E+02  0.12000000000E+02  0.51109989000E-03 0. -1.
     -623   -1    0    0    0    0  0.00000000000E+00  0.00000000000E+00  0.42561509872E-11  0.25126700000E+02  0.25126700000E+02 0. -1.
      622    2    1    2    0    0 -0.51807239047E-02  0.88245459508E-02  0.11872051641E+02  0.11872513672E+02  0.10424022477E+00 0.  0.
       11    1    1    2    0    0 -0.12080050067E-02  0.71031654352E-02  0.12727565287E+00  0.12748045839E+00  0.51109989000E-03 0. -1.
     -623    1    1    2    0    0  0.63887289114E-02 -0.15927711386E-01  0.67269559586E-03  0.25126705869E+02  0.25126700000E+02 0. -1.
     -611    1    3    3    0    0  0.39687304807E-01  0.35840101740E-02  0.89627693809E+01  0.89628635437E+01  0.10000000000E-01 0. -1.
      611    1    3    3    0    0 -0.44868028712E-01  0.52405357769E-02  0.29092822597E+01  0.29096501284E+01  0.10000000000E-01 0.  1.
</event>
<event>
 7   0  0.6206631E-02  0.9118800E+02  0.7818608E-02  0.1180000E+00
       11   -1    0    0    0    0  0.00000000000E+00  0.00000000000E+00  0.11999999989E+02  0.12000000000E+02  0.51109989000E-03 0. -1.
     -623   -1    0    0    0    0  0.00000000000E+00  0.00000000000E+00  0.42561509872E-11  0.25126700000E+02  0.25126700000E+02 0. -1.
      622    2    1    2    0    0 -0.12783861911E-01  0.78469259812E-01  0.74346407563E+01  0.74356206971E+01  0.90835695685E-01 0.  0.
       11    1    1    2    0    0  0.26264777795E-01 -0.66484250024E-01  0.45638129481E+01  0.45643727806E+01  0.51109989000E-03 0. -1.
     -623    1    1    2    0    0 -0.13480915884E-01 -0.11985009787E-01  0.15462846923E-02  0.25126706522E+02  0.25126700000E+02 0. -1.
     -611    1    3    3    0    0 -0.33569134585E-01  0.60857016109E-01  0.67499127592E+01  0.67502779735E+01  0.10000000000E-01 0. -1.
      611    1    3    3    0    0  0.20785272674E-01  0.17612243703E-01  0.68472799713E+00  0.68534272357E+00  0.10000000000E-01 0.  1.
</event>
<event>
 7   0  0.6206631E-02  0.9118800E+02  0.7818608E-02  0.1180000E+00
       11   -1    0    0    0    0  0.00000000000E+00  0.00000000000E+00  0.11999999989E+02  0.12000000000E+02  0.51109989000E-03 0.  1.
     -623   -1    0    0    0    0  0.00000000000E+00  0.00000000000E+00  0.42561509872E-11  0.25126700000E+02  0.25126700000E+02 0.  1.
      622    2    1    2    0    0  0.10999679266E-01  0.10455024130E-01  0.10470878758E+02  0.10471439538E+02  0.10730205834E+00 0.  0.
       11    1    1    2    0    0 -0.96887393469E-02 -0.11395983710E-01  0.15284871286E+01  0.15285604024E+01  0.51109989000E-03 0.  1.
     -623    1    1    2    0    0 -0.13109399194E-02  0.94095957989E-03  0.63410263795E-03  0.25126700060E+02  0.25126700000E+02 0.  1.
     -611    1    3    3    0    0  0.12484072219E-01 -0.39506094865E-01  0.22556307574E+01  0.22560333990E+01  0.10000000000E-01 0. -1.
      611    1    3    3    0    0 -0.14843929523E-02  0.49961118995E-01  0.82152480005E+01  0.82154061389E+01  0.10000000000E-01 0.  1.
</event>
<event>
 7   0  0.6206631E-02  0.9118800E+02  0.7818608E-02  0.1180000E+00
       11   -1    0    0    0    0  0.00000000000E+00  0.00000000000E+00  0.11999999989E+02  0.12000000000E+02  0.51109989000E-03 0.  1.
     -623   -1    0    0    0    0  0.00000000000E+00  0.00000000000E+00  0.42561509872E-11  0.25126700000E+02  0.25126700000E+02 0.  1.
      622    2    1    2    0    0  0.95354928354E-03  0.10014044201E-02  0.11997302447E+02  0.11997646100E+02  0.90796631887E-01 0.  0.
       11    1    1    2    0    0  0.69071542255E-03 -0.21814773442E-02 -0.20619959029E-03  0.23536509021E-02  0.51109989000E-03 0.  1.
     -623    1    1    2    0    0 -0.16442647061E-02  0.11800729241E-02  0.29037420892E-02  0.25126700249E+02  0.25126700000E+02 0.  1.
     -611    1    3    3    0    0 -0.20010193670E-01  0.96569527217E-02  0.93956571599E+00  0.93988158789E+00  0.10000000000E-01 0. -1.
      611    1    3    3    0    0  0.20963742954E-01 -0.86555483016E-02  0.11057736731E+02  0.11057764512E+02  0.10000000000E-01 0.  1.
</event>
<event>
 7   0  0.6206631E-02  0.9118800E+02  0.7818608E-02  0.1180000E+00
       11   -1    0    0    0    0  0.00000000000E+00  0.00000000000E+00  0.11999999989E+02  0.12000000000E+02  0.51109989000E-03 0.  1.
     -623   -1    0    0    0    0  0.00000000000E+00  0.00000000000E+00  0.42561509872E-11  0.25126700000E+02  0.25126700000E+02 0. -1.
      622    2    1    2    0    0 -0.72389682621E-02 -0.80777105362E-02  0.11987360392E+02  0.11987507756E+02  0.58441100265E-01 0.  0.
       11    1    1    2    0    0  0.49890922095E-02 -0.29365547839E-02  0.11055156111E-01  0.12489679533E-01  0.51109989000E-03 0.  1.
     -623    1    1    2    0    0  0.22498760526E-02  0.11014265320E-01  0.15844405134E-02  0.25126702565E+02  0.25126700000E+02 0. -1.
     -611    1    3    3    0    0 -0.48575440425E-02  0.99068416636E-02  0.86562907753E+00  0.86575714903E+00  0.10000000000E-01 0. -1.
      611    1    3    3    0    0 -0.23814242196E-02 -0.17984552200E-01  0.11121731315E+02  0.11121750607E+02  0.10000000000E-01 0.  1.
</event>
<event>
 7   0  0.6206631E-02  0.9118800E+02  0.7818608E-02  0.1180000E+00
       11   -1    0    0    0    0  0.00000000000E+00  0.00000000000E+00  0.11999999989E+02  0.12000000000E+02  0.51109989000E-03 0. -1.
     -623   -1    0    0    0    0  0.00000000000E+00  0.00000000000E+00  0.42561509872E-11  0.25126700000E+02  0.25126700000E+02 0. -1.
      622    2    1    2    0    0 -0.38415615504E-02  0.62554973765E-02  0.11802067656E+02  0.11802536828E+02  0.10497959408E+00 0.  0.
       11    1    1    2    0    0 -0.52415616068E-03 -0.49413447035E-02  0.19739955920E+00  0.19746275300E+00  0.51109989000E-03 0. -1.
     -623    1    1    2    0    0  0.43657177110E-02 -0.13141526729E-02  0.53277354679E-03  0.25126700419E+02  0.25126700000E+02 0. -1.
     -611    1    3    3    0    0 -0.92513036921E-03  0.43365095737E-01  0.97832272252E+01  0.97833284892E+01  0.10000000000E-01 0. -1.
      611    1    3    3    0    0 -0.29164311811E-02 -0.37109598361E-01  0.20188404312E+01  0.20192083385E+01  0.10000000000E-01 0.  1.
</event>
<event>
 7   0  0.6206631E-02  0.9118800E+02  0.7818608E-02  0.1180000E+00
       11   -1    0    0    0    0  0.00000000000E+00  0.00000000000E+00  0.11999999989E+02  0.12000000000E+02  0.51109989000E-03 0. -1.
     -623   -1    0    0    0    0  0.00000000000E+00  0.00000000000E+00  0.42561509872E-11  0.25126700000E+02  0.25126700000E+02 0.  1.
      622    2    1    2    0    0  0.42385763623E-02 -0.13148519633E-02  0.11924737486E+02  0.11925118029E+02  0.95164113742E-01 0.  0.
       11    1    1    2    0    0 -0.12969169389E-02 -0.41682025884E-02  0.74752098495E-01  0.74881194962E-01  0.51109989000E-03 0. -1.
     -623    1    1    2    0    0 -0.29416594233E-02  0.54830545517E-02  0.51040451900E-03  0.25126700776E+02  0.25126700000E+02 0.  1.
     -611    1    3    3    0    0 -0.29028200250E-01 -0.24497880725E-01  0.89635618520E+01  0.89636479102E+01  0.10000000000E-01 0. -1.
      611    1    3    3    0    0  0.33266776613E-01  0.23183028761E-01  0.29611756341E+01  0.29614701193E+01  0.10000000000E-01 0.  1.
</event>
<event>
 7   0  0.6206631E-02  0.9118800E+02  0.7818608E-02  0.1180000E+00
       11   -1    0    0    0    0  0.00000000000E+00  0.00000000000E+00  0.11999999989E+02  0.12000000000E+02  0.51109989000E-03 0. -1.
     -623   -1    0    0    0    0  0.00000000000E+00  0.00000000000E+00  0.42561509872E-11  0.25126700000E+02  0.25126700000E+02 0. -1.
      622    2    1    2    0    0 -0.18070663088E-01  0.55373061355E-01  0.11104060998E+02  0.11104658306E+02  0.99361566563E-01 0.  0.
       11    1    1    2    0    0  0.96545297881E-02 -0.52317142260E-01  0.89375789157E+00  0.89534000429E+00  0.51109989000E-03 0. -1.
     -623    1    1    2    0    0  0.84161332996E-02 -0.30559190954E-02  0.21810998198E-02  0.25126701690E+02  0.25126700000E+02 0. -1.
     -611    1    3    3    0    0  0.17016022396E-01  0.69659326136E-01  0.57859058032E+01  0.57863587800E+01  0.10000000000E-01 0. -1.
      611    1    3    3    0    0 -0.35086685484E-01 -0.14286264781E-01  0.53181551945E+01  0.53182995258E+01  0.10000000000E-01 0.  1.
</event>
<event>
 7   0  0.6206631E-02  0.9118800E+02  0.7818608E-02  0.1180000E+00
       11   -1    0    0    0    0  0.00000000000E+00  0.00000000000E+00  0.11999999989E+02  0.12000000000E+02  0.51109989000E-03 0.  1.
     -623   -1    0    0    0    0  0.00000000000E+00  0.00000000000E+00  0.42561509872E-11  0.25126700000E+02  0.25126700000E+02 0.  1.
      622    2    1    2    0    0 -0.31431328234E-01  0.49868486995E-02  0.90492884510E+01  0.90499167017E+01  0.10177446056E+00 0.  0.
       11    1    1    2    0    0  0.33754957746E-01 -0.42407747887E-02  0.29498869547E+01  0.29500831663E+01  0.51109989000E-03 0.  1.
     -623    1    1    2    0    0 -0.23236295116E-02 -0.74607391079E-03  0.82458344149E-03  0.25126700132E+02  0.25126700000E+02 0.  1.
     -611    1    3    3    0    0 -0.26531789379E-01  0.47304749781E-01  0.32918994024E+01  0.32923613639E+01  0.10000000000E-01 0. -1.
      611    1    3    3    0    0 -0.48995388550E-02 -0.42317901081E-01  0.57573890486E+01  0.57575553377E+01  0.10000000000E-01 0.  1.
</event>
<event>
 7   0  0.6206631E-02  0.9118800E+02  0.7818608E-02  0.1180000E+00
       11   -1    0    0    0    0  0.00000000000E+00  0.00000000000E+00  0.11999999989E+02  0.12000000000E+02  0.51109989000E-03 0. -1.
     -623   -1    0    0    0    0  0.00000000000E+00  0.00000000000E+00  0.42561509872E-11  0.25126700000E+02  0.25126700000E+02 0.  1.
      622    2    1    2    0    0 -0.38052170868E-01 -0.37220935771E-01  0.11953886371E+02  0.11954818125E+02  0.13944052970E+00 0.  0.
       11    1    1    2    0    0  0.25506455554E-03 -0.16447387856E-01  0.41985564508E-01  0.45095792214E-01  0.51109989000E-03 0. -1.
     -623    1    1    2    0    0  0.37797106312E-01  0.53668323626E-01  0.41280532659E-02  0.25126786083E+02  0.25126700000E+02 0.  1.
     -611    1    3    3    0    0 -0.24576221268E-01 -0.85996797709E-01  0.56076605375E+01  0.56083826673E+01  0.10000000000E-01 0.  1.
      611    1    3    3    0    0 -0.13475949600E-01  0.48775861939E-01  0.63462258339E+01  0.63464354578E+01  0.10000000000E-01 0. -1.
</event>
<event>
 7   0  0.6206631E-02  0.9118800E+02  0.7818608E-02  0.1180000E+00
       11   -1    0    0    0    0  0.00000000000E+00  0.00000000000E+00  0.11999999989E+02  0.12000000000E+02  0.51109989000E-03 0. -1.
     -623   -1    0    0    0    0  0.00000000000E+00  0.00000000000E+00  0.42561509872E-11  0.25126700000E+02  0.25126700000E+02 0. -1.
      622    2    1    2    0    0 -0.69242678858E-02  0.30598369996E-01  0.11265058094E+02  0.11265509659E+02  0.95863415522E-01 0.  0.
       11    1    1    2    0    0  0.18394611702E-01  0.22879533015E-01  0.73384364093E+00  0.73443079002E+00  0.51109989000E-03 0. -1.
     -623    1    1    2    0    0 -0.11470343816E-01 -0.53477903010E-01  0.10982538574E-02  0.25126759551E+02  0.25126700000E+02 0. -1.
     -611    1    3    3    0    0  0.29975853994E-01  0.42929406957E-03  0.15132686939E+01  0.15135986509E+01  0.10000000000E-01 0.  1.
      611    1    3    3    0    0 -0.36900121880E-01  0.30169075926E-01  0.97517894004E+01  0.97519110077E+01  0.10000000000E-01 0. -1.
</event>
<event>
 7   0  0.6206631E-02  0.9118800E+02  0.7818608E-02  0.1180000E+00
       11   -1    0    0    0    0  0.00000000000E+00  0.00000000000E+00  0.11999999989E+02  0.12000000000E+02  0.51109989000E-03 0.  1.
     -623   -1    0    0    0    0  0.00000000000E+00  0.00000000000E+00  0.42561509872E-11  0.25126700000E+02  0.25126700000E+02 0. -1.
      622    2    1    2    0    0 -0.21377531090E-02  0.62558052872E-02  0.11954308290E+02  0.11954776916E+02  0.10564429224E+00 0.  0.
       11    1    1    2    0    0  0.76816554935E-03 -0.65881193380E-02  0.44731057456E-01  0.45223026425E-01  0.51109989000E-03 0.  1.
     -623    1    1    2    0    0  0.13695875597E-02  0.33231405089E-03  0.96064208471E-03  0.25126700058E+02  0.25126700000E+02 0. -1.
     -611    1    3    3    0    0  0.24948203789E-01 -0.72174085511E-03  0.84251592251E+00  0.84294484604E+00  0.10000000000E-01 0. -1.
      611    1    3    3    0    0 -0.27085956898E-01  0.69775461423E-02  0.11111792367E+02  0.11111832070E+02  0.10000000000E-01 0.  1.
</event>
<event>
 7   0  0.6206631E-02  0.9118800E+02  0.7818608E-02  0.1180000E+00
       11   -1    0    0    0    0  0.00000000000E+00  0.00000000000E+00  0.11999999989E+02  0.12000000000E+02  0.51109989000E-03 0.  1.
     -623   -1    0    0    0    0  0.00000000000E+00  0.00000000000E+00  0.42561509872E-11  0.25126700000E+02  0.25126700000E+02 0.  1.
      622    2    1    2    0    0 -0.37324713643E-01  0.22411352726E-01  0.10652731797E+02  0.10653378208E+02  0.10898211245E+00 0.  0.
       11    1    1    2    0    0  0.48489243257E-01 -0.28747020875E-01  0.13454379885E+01  0.13466184463E+01  0.51109989000E-03 0.  1.
     -623    1    1    2    0    0 -0.11164529614E-01  0.63356681487E-02  0.18302037489E-02  0.25126703346E+02  0.25126700000E+02 0.  1.
     -611    1    3    3    0    0 -0.68984682102E-01  0.32715713872E-01  0.56363611179E+01  0.56368870713E+01  0.10000000000E-01 0.  1.
      611    1    3    3    0    0  0.31659968459E-01 -0.10304361146E-01  0.50163706790E+01  0.50164911365E+01  0.10000000000E-01 0. -1.
</event>
<event>
 7   0  0.6206631E-02  0.9118800E+02  0.7818608E-02  0.1180000E+00
       11   -1    0    0    0    0  0.00000000000E+00  0.00000000000E+00  0.11999999989E+02  0.12000000000E+02  0.51109989000E-03 0.  1.
     -623   -1    0    0    0    0  0.00000000000E+00  0.00000000000E+00  0.42561509872E-11  0.25126700000E+02  0.25126700000E+02 0.  1.
      622    2    1    2    0    0 -0.21282286980E-02  0.26815634122E-02  0.11819781754E+02  0.11819924925E+02  0.58075819983E-01 0.  0.
       11    1    1    2    0    0  0.21168356898E-02 -0.25545841014E-02  0.18004378436E+00  0.18007507435E+00  0.51109989000E-03 0.  1.
     -623    1    1    2    0    0  0.11393008199E-04 -0.12697931078E-03  0.17445106527E-03  0.25126700001E+02  0.25126700000E+02 0.  1.
     -611    1    3    3    0    0 -0.40357815427E-02  0.56771339974E-02  0.11407838896E+02  0.11407845406E+02  0.10000000000E-01 0.  1.
      611    1    3    3    0    0  0.19075528447E-02 -0.29955705852E-02  0.41194285729E+00  0.41207951887E+00  0.10000000000E-01 0.  1.
</event>
<event>
 7   0  0.6206631E-02  0.9118800E+02  0.7818608E-02  0.1180000E+00
       11   -1    0    0    0    0  0.00000000000E+00  0.00000000000E+00  0.11999999989E+02  0.12000000000E+02  0.51109989000E-03 0. -1.
     -623   -1    0    0    0    0  0.00000000000E+00  0.00000000000E+00  0.42561509872E-11  0.25126700000E+02  0.25126700000E+02 0. -1.
      622    2    1    2    0    0  0.63126091651E-03  0.53874120209E-03  0.11974556632E+02  0.11974607795E+02  0.34994824898E-01 0.  0.
       11    1    1    2    0    0 -0.24598388858E-03 -0.43688617659E-03  0.25382105902E-01  0.25392201574E-01  0.51109989000E-03 0. -1.
     -623    1    1    2    0    0 -0.38527702793E-03 -0.10185502550E-03  0.61251669658E-04  0.25126700003E+02  0.25126700000E+02 0. -1.
     -611    1    3    3    0    0  0.53348923285E-02 -0.11762740670E-01  0.38965792695E+01  0.38966135075E+01  0.10000000000E-01 0. -1.
      611    1    3    3    0    0 -0.47036314120E-02  0.12301481872E-01  0.80779773622E+01  0.80779942879E+01  0.10000000000E-01 0. -1.
</event>
<event>
 7   0  0.6206631E-02  0.9118800E+02  0.7818608E-02  0.1180000E+00
       11   -1    0    0    0    0  0.00000000000E+00  0.00000000000E+00  0.11999999989E+02  0.12000000000E+02  0.51109989000E-03 0.  1.
     -623   -1    0    0    0    0  0.00000000000E+00  0.00000000000E+00  0.42561509872E-11  0.25126700000E+02  0.25126700000E+02 0.  1.
      622    2    1    2    0    0 -0.62708886832E-01  0.61751254340E-02  0.10742380487E+02  0.10743045405E+02  0.10156536847E+00 0.  0.
       11    1    1    2    0    0  0.63939714017E-01 -0.95132944365E-02  0.12552907622E+01  0.12569542349E+01  0.51109989000E-03 0.  1.
     -623    1    1    2    0    0 -0.12308271847E-02  0.33381690025E-02  0.23287403115E-02  0.25126700360E+02  0.25126700000E+02 0.  1.
     -611    1    3    3    0    0 -0.11512879804E-01  0.98064440652E-03  0.21822520205E+00  0.21875956408E+00  0.10000000000E-01 0.  1.
      611    1    3    3    0    0 -0.51196007028E-01  0.51944810275E-02  0.10524155285E+02  0.10524285841E+02  0.10000000000E-01 0.  1.
</event>
<event>
 7   0  0.6206631E-02  0.9118800E+02  0.7818608E-02  0.1180000E+00
       11   -1    0    0    0    0  0.00000000000E+00  0.00000000000E+00  0.11999999989E+02  0.12000000000E+02  0.51109989000E-03 0.  1.
     -623   -1    0    0    0    0  0.00000000000E+00  0.00000000000E+00  0.42561509872E-11  0.25126700000E+02  0.25126700000E+02 0.  1.
      622    2    1    2    0    0 -0.55359831493E-01 -0.17297558572E+00  0.64544073012E+01  0.64573368624E+01  0.69573562045E-01 0.  0.
       11    1    1    2    0    0  0.10084875935E+00  0.11819849673E+00  0.55403834463E+01  0.55425617137E+01  0.51109989000E-03 0.  1.
     -623    1    1    2    0    0 -0.45488927853E-01  0.54777088988E-01  0.52092416607E-02  0.25126801424E+02  0.25126700000E+02 0.  1.
     -611    1    3    3    0    0  0.58426745737E-02 -0.14004982608E-01  0.12519224208E+01  0.12520543216E+01  0.10000000000E-01 0.  1.
      611    1    3    3    0    0 -0.61202506066E-01 -0.15897060311E+00  0.52024848803E+01  0.52052825408E+01  0.10000000000E-01 0. -1.
</event>
<event>
 7   0  0.6206631E-02  0.9118800E+02  0.7818608E-02  0.1180000E+00
       11   -1    0    0    0    0  0.00000000000E+00  0.00000000000E+00  0.11999999989E+02  0.12000000000E+02  0.51109989000E-03 0. -1.
     -623   -1    0    0    0    0  0.00000000000E+00  0.00000000000E+00  0.42561509872E-11  0.25126700000E+02  0.25126700000E+02 0.  1.
      622    2    1    2    0    0 -0.35403378706E-02 -0.98273741945E-02  0.10736755349E+02  0.10737083003E+02  0.83227978184E-01 0.  0.
       11    1    1    2    0    0  0.22355796432E-02  0.98399036608E-02  0.12628765439E+01  0.12629169600E+01  0.51109989000E-03 0. -1.
     -623    1    1    2    0    0  0.13047582274E-02 -0.12529466271E-04  0.36809666974E-03  0.25126700037E+02  0.25126700000E+02 0.  1.
     -611    1    3    3    0    0  0.39544492045E-02 -0.85300722153E-02  0.29412573301E+00  0.29444582968E+00  0.10000000000E-01 0. -1.
      611    1    3    3    0    0 -0.74947870752E-02 -0.12973019793E-02  0.10442629616E+02  0.10442637174E+02  0.10000000000E-01 0. -1.
</event>
<event>
 7   0  0.6206631E-02  0.9118800E+02  0.7818608E-02  0.1180000E+00
       11   -1    0    0    0    0  0.00000000000E+00  0.00000000000E+00  0.11999999989E+02  0.12000000000E+02  0.51109989000E-03 0. -1.
     -623   -1    0    0    0    0  0.00000000000E+00  0.00000000000E+00  0.42561509872E-11  0.25126700000E+02  0.25126700000E+02 0. -1.
      622    2    1    2    0    0  0.13160737294E+00  0.32588566155E-03  0.74683154680E+01  0.74701885577E+01  0.10324994057E+00 0.  0.
       11    1    1    2    0    0 -0.12393608330E+00 -0.56219433616E-02  0.45281101703E+01  0.45298094590E+01  0.51109989000E-03 0. -1.
     -623    1    1    2    0    0 -0.76712896340E-02  0.52960577000E-02  0.35743508316E-02  0.25126701983E+02  0.25126700000E+02 0. -1.
     -611    1    3    3    0    0  0.85929621163E-01  0.48777366614E-01  0.41281125600E+01  0.41293070169E+01  0.10000000000E-01 0.  1.
      611    1    3    3    0    0  0.45677751772E-01 -0.48451480952E-01  0.33402029080E+01  0.33408815408E+01  0.10000000000E-01 0. -1.
</event>
<event>
 7   0  0.6206631E-02  0.9118800E+02  0.7818608E-02  0.1180000E+00
       11   -1    0    0    0    0  0.00000000000E+00  0.00000000000E+00  0.11999999989E+02  0.12000000000E+02  0.51109989000E-03 0.  1.
     -623   -1    0    0    0    0  0.00000000000E+00  0.00000000000E+00  0.42561509872E-11  0.25126700000E+02  0.25126700000E+02 0.  1.
      622    2    1    2    0    0  0.99306080817E-03  0.14372091797E-03  0.11944713019E+02  0.11944934109E+02  0.72668946189E-01 0.  0.
       11    1    1    2    0    0 -0.31931009720E-03 -0.10302117547E-03  0.55062486191E-01  0.55065880371E-01  0.51109989000E-03 0.  1.
     -623    1    1    2    0    0 -0.67375071098E-03 -0.40699742507E-04  0.22448422545E-03  0.25126700010E+02  0.25126700000E+02 0.  1.
     -611    1    3    3    0    0 -0.19546817280E-01 -0.15857901365E-01  0.98282225716E+01  0.98282598901E+01  0.10000000000E-01 0.  1.
      611    1    3    3    0    0  0.20539878088E-01  0.16001622283E-01  0.21164904470E+01  0.21166742194E+01  0.10000000000E-01 0. -1.
</event>
<event>
 7   0  0.6206631E-02  0.9118800E+02  0.7818608E-02  0.1180000E+00
       11   -1    0    0    0    0  0.00000000000E+00  0.00000000000E+00  0.11999999989E+02  0.12000000000E+02  0.51109989000E-03 0.  1.
     -623   -1    0    0    0    0  0.00000000000E+00  0.00000000000E+00  0.42561509872E-11  0.25126700000E+02  0.25126700000E+02 0. -1.
      622    2    1    2    0    0 -0.11918310335E-02  0.37907690594E-02  0.11969808915E+02  0.11970169029E+02  0.92764862855E-01 0.  0.
       11    1    1    2    0    0  0.38160073797E-03 -0.34551275129E-02  0.29623315399E-01  0.29830949761E-01  0.51109989000E-03 0.  1.
     -623    1    1    2    0    0  0.81023029548E-03 -0.33564154641E-03  0.56775873983E-03  0.25126700022E+02  0.25126700000E+02 0. -1.
     -611    1    3    3    0    0  0.43218595548E-01  0.28420474671E-02  0.73929167138E+01  0.73930503489E+01  0.10000000000E-01 0.  1.
      611    1    3    3    0    0 -0.44410426581E-01  0.94872159230E-03  0.45768922012E+01  0.45771186797E+01  0.10000000000E-01 0. -1.
</event>
<event>
 7   0  0.6206631E-02  0.9118800E+02  0.7818608E-02  0.1180000E+00
       11   -1    0    0    0    0  0.00000000000E+00  0.00000000000E+00  0.11999999989E+02  0.12000000000E+02  0.51109989000E-03 0. -1.
     -623   -1    0    0    0    0  0.00000000000E+00  0.00000000000E+00  0.42561509872E-11  0.25126700000E+02  0.25126700000E+02 0. -1.
      622    2    1    2    0    0 -0.11700626523E-01 -0.34775273010E-01  0.11917761755E+02  0.11918354129E+02  0.11302062946E+00 0.  0.
       11    1    1    2    0    0 -0.39058607390E-01  0.18287062256E-01  0.69253129882E-01  0.81585836263E-01  0.51109989000E-03 0. -1.
     -623    1    1    2    0    0  0.50759233913E-01  0.16488210753E-01  0.12985104298E-01  0.25126760035E+02  0.25126700000E+02 0. -1.
     -611    1    3    3    0    0 -0.22366948611E-01 -0.59059677343E-01  0.37635770711E+01  0.37641201755E+01  0.10000000000E-01 0.  1.
      611    1    3    3    0    0  0.10666322088E-01  0.24284404333E-01  0.81541846839E+01  0.81542339531E+01  0.10000000000E-01 0. -1.
</event>
<event>
 6   0  0.6206631E-02  0.9118800E+02  0.7818608E-02  0.1180000E+00
       11   -1    0    0    0    0  0.00000000000E+00  0.00000000000E+00  0.11999999989E+02  0.12000000000E+02  0.51109989000E-03 0.  1.
     -623   -1    0    0    0    0  0.00000000000E+00  0.00000000000E+00  0.42561509872E-11  0.25126700000E+02  0.25126700000E+02 0. -1.
       11    1    1    2    0    0 -0.19713279739E+00  0.95067690718E-01  0.42085200567E+01  0.42142069877E+01  0.51109989000E-03 0.  1.
     -623    1    1    2    0    0  0.19317283997E-01  0.81642326039E-02  0.11796880208E-01  0.25126711521E+02  0.25126700000E+02 0. -1.
     -611    1    1    2    0    0 -0.69588154828E-02  0.58213436973E-01  0.19991244335E+01  0.20000089324E+01  0.10000000000E-01 0. -1.
      611    1    1    2    0    0  0.18477432888E+00 -0.16144536029E+00  0.57805586187E+01  0.57857725587E+01  0.10000000000E-01 0.  1.
</event>
<event>
 7   0  0.6206631E-02  0.9118800E+02  0.7818608E-02  0.1180000E+00
       11   -1    0    0    0    0  0.00000000000E+00  0.00000000000E+00  0.11999999989E+02  0.12000000000E+02  0.51109989000E-03 0. -1.
     -623   -1    0    0    0    0  0.00000000000E+00  0.00000000000E+00  0.42561509872E-11  0.25126700000E+02  0.25126700000E+02 0. -1.
      622    2    1    2    0    0  0.13296535542E-01  0.54959083660E-02  0.11710715937E+02  0.11710771786E+02  0.33182165912E-01 0.  0.
       11    1    1    2    0    0 -0.13708955023E-01 -0.54026912054E-02  0.28885215871E+00  0.28922820633E+00  0.51109989000E-03 0. -1.
     -623    1    1    2    0    0  0.41241947999E-03 -0.93217160821E-04  0.43189267813E-03  0.25126700007E+02  0.25126700000E+02 0. -1.
     -611    1    3    3    0    0  0.14160477152E-01 -0.61931182542E-03  0.31487118103E+01  0.31487595918E+01  0.10000000000E-01 0.  1.
      611    1    3    3    0    0 -0.86394161012E-03  0.61152201914E-02  0.85620041270E+01  0.85620121942E+01  0.10000000000E-01 0. -1.
</event>
<event>
 7   0  0.6206631E-02  0.9118800E+02  0.7818608E-02  0.1180000E+00
       11   -1    0    0    0    0  0.00000000000E+00  0.00000000000E+00  0.11999999989E+02  0.12000000000E+02  0.51109989000E-03 0.  1.
     -623   -1    0    0    0    0  0.00000000000E+00  0.00000000000E+00  0.42561509872E-11  0.25126700000E+02  0.25126700000E+02 0.  1.
      622    2    1    2    0    0 -0.28236604405E-02 -0.42635425983E-02  0.11979857605E+02  0.11980251694E+02  0.97037492784E-01 0.  0.
       11    1    1    2    0    0 -0.84608939138E-02 -0.64108772935E-02  0.16638780658E-01  0.19743260076E-01  0.51109989000E-03 0.  1.
     -623    1    1    2    0    0  0.11284554354E-01  0.10674419892E-01  0.35036035911E-02  0.25126705046E+02  0.25126700000E+02 0.  1.
     -611    1    3    3    0    0 -0.15266203886E-01 -0.12627898481E-01  0.11544400139E+02  0.11544421471E+02  0.10000000000E-01 0.  1.
      611    1    3    3    0    0  0.12442543445E-01  0.83643558829E-02  0.43545746591E+00  0.43583022377E+00  0.10000000000E-01 0.  1.
</event>
<event>
 6   0  0.6206631E-02  0.9118800E+02  0.7818608E-02  0.1180000E+00
       11   -1    0    0    0    0  0.00000000000E+00  0.00000000000E+00  0.11999999989E+02  0.12000000000E+02  0.51109989000E-03 0.  1.
     -623   -1    0    0    0    0  0.00000000000E+00  0.00000000000E+00  0.42561509872E-11  0.25126700000E+02  0.25126700000E+02 0. -1.
       11    1    1    2    0    0 -0.19708448533E-01  0.14768702991E-01  0.26948312190E+00  0.27060663655E+00  0.51109989000E-03 0.  1.
     -623    1    1    2    0    0 -0.12284201335E-01 -0.92810457414E-02  0.33629193764E-02  0.25126704942E+02  0.25126700000E+02 0. -1.
     -611    1    1    2    0    0 -0.71297624288E-01 -0.94626424529E-02  0.15455679046E+01  0.15472727751E+01  0.10000000000E-01 0. -1.
      611    1    1    2    0    0  0.10329027416E+00  0.39749852037E-02  0.10181586043E+02  0.10182115646E+02  0.10000000000E-01 0.  1.
</event>
<event>
 7   0  0.6206631E-02  0.9118800E+02  0.7818608E-02  0.1180000E+00
       11   -1    0    0    0    0  0.00000000000E+00  0.00000000000E+00  0.11999999989E+02  0.12000000000E+02  0.51109989000E-03 0.  1.
     -623   -1    0    0    0    0  0.00000000000E+00  0.00000000000E+00  0.42561509872E-11  0.25126700000E+02  0.25126700000E+02 0.  1.
      622    2    1    2    0    0 -0.43509183486E-01 -0.54240725350E-01  0.33717904855E+01  0.33740370074E+01  0.10158515591E+00 0.  0.
       11    1    1    2    0    0  0.28819736044E-01  0.58209048098E-01  0.86257136978E+01  0.86259582614E+01  0.51109989000E-03 0.  1.
     -623    1    1    2    0    0  0.14689447442E-01 -0.39683227474E-02  0.24958058176E-02  0.25126704731E+02  0.25126700000E+02 0.  1.
     -611    1    3    3    0    0 -0.31317969349E-01  0.85256215055E-02  0.37166095913E+00  0.37320955235E+00  0.10000000000E-01 0.  1.
      611    1    3    3    0    0 -0.12191214137E-01 -0.62766346856E-01  0.30001295264E+01  0.30008274551E+01  0.10000000000E-01 0. -1.
</event>
<event>
 7   0  0.6206631E-02  0.9118800E+02  0.7818608E-02  0.1180000E+00
       11   -1    0    0    0    0  0.00000000000E+00  0.00000000000E+00  0.11999999989E+02  0.12000000000E+02  0.51109989000E-03 0.  1.
     -623   -1    0    0    0    0  0.00000000000E+00  0.00000000000E+00  0.42561509872E-11  0.25126700000E+02  0.25126700000E+02 0.  1.
      622    2    1    2    0    0 -0.30318804555E-01 -0.85232149222E-02  0.10808222347E+02  0.10808955187E+02  0.12186078012E+00 0.  0.
       11    1    1    2    0    0  0.29900919478E-01  0.92586547224E-02  0.11906332780E+01  0.11910447732E+01  0.51109989000E-03 0.  1.
     -623    1    1    2    0    0  0.41788507715E-03 -0.73543980010E-03  0.11443641881E-02  0.25126700040E+02  0.25126700000E+02 0.  1.
     -611    1    3    3    0    0 -0.29059841767E-01 -0.20065458312E-01  0.93389110612E+00  0.93461205594E+00  0.10000000000E-01 0. -1.
      611    1    3    3    0    0 -0.12589627881E-02  0.11542243390E-01  0.98743312408E+01  0.98743431306E+01  0.10000000000E-01 0.  1.
</event>
<event>
 7   0  0.6206631E-02  0.9118800E+02  0.7818608E-02  0.1180000E+00
       11   -1    0    0    0    0  0.00000000000E+00  0.00000000000E+00  0.11999999989E+02  0.12000000000E+02  0.51109989000E-03 0. -1.
     -623   -1    0    0    0    0  0.00000000000E+00  0.00000000000E+00  0.42561509872E-11  0.25126700000E+02  0.25126700000E+02 0.  1.
      622    2    1    2    0    0  0.33288923031E-01  0.18795315405E-01  0.10749806077E+02  0.10749951706E+02  0.40860341070E-01 0.  0.
       11    1    1    2    0    0 -0.14440188367E-01 -0.59346688241E-01  0.12485152405E+01  0.12500084461E+01  0.51109989000E-03 0. -1.
     -623    1    1    2    0    0 -0.18848734664E-01  0.40551372837E-01  0.16786717043E-02  0.25126739848E+02  0.25126700000E+02 0.  1.
     -611    1    3    3    0    0  0.20682169581E-01  0.24065541723E-01  0.90532940683E+01  0.90533552007E+01  0.10000000000E-01 0. -1.
      611    1    3    3    0    0  0.12606753451E-01 -0.52702263188E-02  0.16965120087E+01  0.16965965051E+01  0.10000000000E-01 0. -1.
</event>
<event>
 7   0  0.6206631E-02  0.9118800E+02  0.7818608E-02  0.1180000E+00
       11   -1    0    0    0    0  0.00000000000E+00  0.00000000000E+00  0.11999999989E+02  0.12000000000E+02  0.51109989000E-03 0.  1.
     -623   -1    0    0    0    0  0.00000000000E+00  0.00000000000E+00  0.42561509872E-11  0.25126700000E+02  0.25126700000E+02 0. -1.
      622    2    1    2    0    0 -0.40093241365E-01 -0.11466458832E-01  0.64599403905E+01  0.64613633498E+01  0.12902535712E+00 0.  0.
       11    1    1    2    0    0  0.39479783099E-01  0.12935474921E-01  0.55384807116E+01  0.55386365501E+01  0.51109989000E-03 0.  1.
     -623    1    1    2    0    0  0.61345826594E-03 -0.14690160892E-02  0.15788870156E-02  0.25126700100E+02  0.25126700000E+02 0. -1.
     -611    1    3    3    0    0 -0.70445164706E-01 -0.85815118033E-04  0.19535743878E+01  0.19548696676E+01  0.10000000000E-01 0.  1.
      611    1    3    3    0    0  0.30351923342E-01 -0.11380643714E-01  0.45063660027E+01  0.45064936823E+01  0.10000000000E-01 0.  1.
</event>
<event>
 7   0  0.6206631E-02  0.9118800E+02  0.7818608E-02  0.1180000E+00
       11   -1    0    0    0    0  0.00000000000E+00  0.00000000000E+00  0.11999999989E+02  0.12000000000E+02  0.51109989000E-03 0. -1.
     -623   -1    0    0    0    0  0.00000000000E+00  0.00000000000E+00  0.42561509872E-11  0.25126700000E+02  0.25126700000E+02 0.  1.
      622    2    1    2    0    0 -0.70643810864E-02  0.82191504039E-03  0.11864174759E+02  0.11864676475E+02  0.10887864530E+00 0.  0.
       11    1    1    2    0    0  0.82417479071E-02  0.54344945820E-02  0.13496115287E+00  0.13532270374E+00  0.51109989000E-03 0. -1.
     -623    1    1    2    0    0 -0.11773668207E-02 -0.62564096224E-02  0.86407717100E-03  0.25126700821E+02  0.25126700000E+02 0.  1.
     -611    1    3    3    0    0 -0.47253378062E-01  0.13098001583E-01  0.31752299059E+01  0.31756242528E+01  0.10000000000E-01 0.  1.
      611    1    3    3    0    0  0.40188996976E-01 -0.12276086543E-01  0.86889448532E+01  0.86890522222E+01  0.10000000000E-01 0. -1.
</event>
<event>
 7   0  0.6206631E-02  0.9118800E+02  0.7818608E-02  0.1180000E+00
       11   -1    0    0    0    0  0.00000000000E+00  0.00000000000E+00  0.11999999989E+02  0.12000000000E+02  0.51109989000E-03 0. -1.
     -623   -1    0    0    0    0  0.00000000000E+00  0.00000000000E+00  0.42561509872E-11  0.25126700000E+02  0.25126700000E+02 0.  1.
      622    2    1    2    0    0 -0.11321002704E-01  0.18506211719E-01  0.11594376181E+02  0.11594843792E+02  0.10184739971E+00 0.  0.
       11    1    1    2    0    0  0.13066703134E-01 -0.16607518491E-01  0.40460427437E+00  0.40515605445E+00  0.51109989000E-03 0. -1.
     -623    1    1    2    0    0 -0.17457004299E-02 -0.18986932273E-02  0.10195334191E-02  0.25126700153E+02  0.25126700000E+02 0.  1.
     -611    1    3    3    0    0 -0.44761593739E-01 -0.71250133531E-03  0.27868388209E+01  0.27872163033E+01  0.10000000000E-01 0.  1.
      611    1    3    3    0    0  0.33440591035E-01  0.19218713054E-01  0.88075373604E+01  0.88076274891E+01  0.10000000000E-01 0. -1.
</event>
<event>
 6   0  0.6206631E-02  0.9118800E+02  0.7818608E-02  0.1180000E+00
       11   -1    0    0    0    0  0.00000000000E+00  0.00000000000E+00  0.11999999989E+02  0.12000000000E+02  0.51109989000E-03 0. -1.
     -623   -1    0    0    0    0  0.00000000000E+00  0.00000000000E+00  0.42561509872E-11  0.25126700000E+02  0.25126700000E+02 0. -1.
       11    1    1    2    0    0  0.17974596416E-01 -0.12750593508E-01  0.36557635967E+00  0.36624035786E+00  0.51109989000E-03 0. -1.
     -623    1    1    2    0    0  0.22441569528E-01 -0.31866395389E-01  0.26957793419E-02  0.25126730373E+02  0.25126700000E+02 0. -1.
     -611    1    1    2    0    0 -0.89388639567E-01  0.39016324820E-01  0.10820274406E+02  0.10820718591E+02  0.10000000000E-01 0. -1.
      611    1    1    2    0    0  0.48972473623E-01  0.56006640780E-02  0.81145344361E+00  0.81301067751E+00  0.10000000000E-01 0.  1.
</event>
<event>
 7   0  0.6206631E-02  0.9118800E+02  0.7818608E-02  0.1180000E+00
       11   -1    0    0    0    0  0.00000000000E+00  0.00000000000E+00  0.11999999989E+02  0.12000000000E+02  0.51109989000E-03 0.  1.
     -623   -1    0    0    0    0  0.00000000000E+00  0.00000000000E+00  0.42561509872E-11  0.25126700000E+02  0.25126700000E+02 0. -1.
      622    2    1    2    0    0 -0.24228485750E-01  0.12501386481E-01  0.10698201188E+02  0.10698809299E+02  0.11076302787E+00 0.  0.
       11    1    1    2    0    0  0.62439621878E-02 -0.13368237700E-01  0.13011004837E+01  0.13011842402E+01  0.51109989000E-03 0.  1.
     -623    1    1    2    0    0  0.17984523562E-01  0.86685121881E-03  0.69831721416E-03  0.25126706461E+02  0.25126700000E+02 0. -1.
     -611    1    3    3    0    0  0.32246001480E-01 -0.26708659284E-01  0.32728929005E+01  0.32731759951E+01  0.10000000000E-01 0. -1.
      611    1    3    3    0    0 -0.56474487230E-01  0.39210045765E-01  0.74253082877E+01  0.74256333038E+01  0.10000000000E-01 0.  1.
</event>
<event>
 7   0  0.6206631E-02  0.9118800E+02  0.7818608E-02  0.1180000E+00
       11   -1    0    0    0    0  0.00000000000E+00  0.00000000000E+00  0.11999999989E+02  0.12000000000E+02  0.51109989000E-03 0.  1.
     -623   -1    0    0    0    0  0.00000000000E+00  0.00000000000E+00  0.42561509872E-11  0.25126700000E+02  0.25126700000E+02 0. -1.
      622    2    1    2    0    0  0.64016844872E-01 -0.32926022386E-01  0.73024076553E+01  0.73037814368E+01  0.12199767682E+00 0.  0.
       11    1    1    2    0    0 -0.14787698579E+00 -0.56534792686E-01  0.46932495269E+01  0.46959189909E+01  0.51109989000E-03 0.  1.
     -623    1    1    2    0    0  0.83860140915E-01  0.89460815072E-01  0.43428069723E-02  0.25126999572E+02  0.25126700000E+02 0. -1.
     -611    1    3    3    0    0  0.80323797629E-01 -0.23602220536E-01  0.26824327176E+01  0.26837574894E+01  0.10000000000E-01 0. -1.
      611    1    3    3    0    0 -0.16306952757E-01 -0.93238018503E-02  0.46199749376E+01  0.46200239474E+01  0.10000000000E-01 0.  1.
</event>
<event>
 7   0  0.6206631E-02  0.9118800E+02  0.7818608E-02  0.1180000E+00
       11   -1    0    0    0    0  0.00000000000E+00  0.00000000000E+00  0.11999999989E+02  0.12000000000E+02  0.51109989000E-03 0.  1.
     -623   -1    0    0    0    0  0.00000000000E+00  0.00000000000E+00  0.42561509872E-11  0.25126700000E+02  0.25126700000E+02 0.  1.
      622    2    1    2    0    0  0.20415633850E-02 -0.98574683260E-02  0.11523645239E+02  0.11523771937E+02  0.53091510992E-01 0.  0.
       11    1    1    2    0    0 -0.57044191095E-02  0.87485418294E-02  0.47611296005E+00  0.47622777044E+00  0.51109989000E-03 0.  1.
     -623    1    1    2    0    0  0.36628557245E-02  0.11089264967E-02  0.24178944374E-03  0.25126700293E+02  0.25126700000E+02 0.  1.
     -611    1    3    3    0    0  0.24892380647E-02  0.19876414975E-01  0.42364189292E+01  0.42364780906E+01  0.10000000000E-01 0.  1.
      611    1    3    3    0    0 -0.44767467970E-03 -0.29733883301E-01  0.72872263103E+01  0.72872938462E+01  0.10000000000E-01 0.  1.
</event>
<event>
 7   0  0.6206631E-02  0.9118800E+02  0.7818608E-02  0.1180000E+00
       11   -1    0    0    0    0  0.00000000000E+00  0.00000000000E+00  0.11999999989E+02  0.12000000000E+02  0.51109989000E-03 0. -1.
     -623   -1    0    0    0    0  0.00000000000E+00  0.00000000000E+00  0.42561509872E-11  0.25126700000E+02  0.25126700000E+02 0. -1.
      622    2    1    2    0    0 -0.48611828251E-02  0.12998972994E-01  0.11937860696E+02  0.11938233743E+02  0.93350441062E-01 0.  0.
       11    1    1    2    0    0  0.68409512054E-02 -0.32217482324E-02  0.61297509176E-01  0.61764262559E-01  0.51109989000E-03 0. -1.
     -623    1    1    2    0    0 -0.19797683803E-02 -0.97772247615E-02  0.84178400007E-03  0.25126701994E+02  0.25126700000E+02 0. -1.
     -611    1    3    3    0    0  0.34112803554E-01 -0.16096209139E-01  0.33071648672E+01  0.33073950822E+01  0.10000000000E-01 0.  1.
      611    1    3    3    0    0 -0.38973986379E-01  0.29095182133E-01  0.86306958288E+01  0.86308386609E+01  0.10000000000E-01 0. -1.
</event>
<event>
 7   0  0.6206631E-02  0.9118800E+02  0.7818608E-02  0.1180000E+00
       11   -1    0    0    0    0  0.00000000000E+00  0.00000000000E+00  0.11999999989E+02  0.12000000000E+02  0.51109989000E-03 0.  1.
     -623   -1    0    0    0    0  0.00000000000E+00  0.00000000000E+00  0.42561509872E-11  0.25126700000E+02  0.25126700000E+02 0. -1.
      622    2    1    2    0    0 -0.33105579366E-01  0.29699913737E-01  0.95628671437E+01  0.95633370174E+01  0.83718790462E-01 0.  0.
       11    1    1    2    0    0 -0.65953959431E-01 -0.45365476074E-01  0.24351473355E+01  0.24364627553E+01  0.51109989000E-03 0.  1.
     -623    1    1    2    0    0  0.99059538797E-01  0.15665562337E-01  0.19855099505E-02  0.25126900227E+02  0.25126700000E+02 0. -1.
     -611    1    3    3    0    0 -0.25621191696E-01  0.57437322341E-01  0.59050243528E+01  0.59053677361E+01  0.10000000000E-01 0. -1.
      611    1    3    3    0    0 -0.74843876704E-02 -0.27737408604E-01  0.36578427909E+01  0.36579692813E+01  0.10000000000E-01 0.  1.
</event>
<event>
 7   0  0.6206631E-02  0.9118800E+02  0.7818608E-02  0.1180000E+00
       11   -1    0    0    0    0  0.00000000000E+00  0.00000000000E+00  0.11999999989E+02  0.12000000000E+02  0.51109989000E-03 0. -1.
     -623   -1    0    0    0    0  0.00000000000E+00  0.00000000000E+00  0.42561509872E-11  0.25126700000E+02  0.25126700000E+02 0.  1.
      622    2    1    2    0    0  0.19034132790E-02 -0.87572520012E-02  0.11868940985E+02  0.11869355220E+02  0.98756887976E-01 0.  0.
       11    1    1    2    0    0 -0.18104100107E-01 -0.32640527161E-02  0.12933388319E+00  0.13063662214E+00  0.51109989000E-03 0. -1.
     -623    1    1    2    0    0  0.16200686828E-01  0.12021304717E-01  0.17251208243E-02  0.25126708158E+02  0.25126700000E+02 0.  1.
     -611    1    3    3    0    0  0.42678700209E-01 -0.21738727214E-01  0.41366284397E+01  0.41369178010E+01  0.10000000000E-01 0.  1.
      611    1    3    3    0    0 -0.40775286930E-01  0.12981475212E-01  0.77323125454E+01  0.77324374192E+01  0.10000000000E-01 0. -1.
</event>
<event>
 7   0  0.6206631E-02  0.9118800E+02  0.7818608E-02  0.1180000E+00
       11   -1    0    0    0    0  0.00000000000E+00  0.00000000000E+00  0.11999999989E+02  0.12000000000E+02  0.51109989000E-03 0. -1.
     -623   -1    0    0    0    0  0.00000000000E+00  0.00000000000E+00  0.42561509872E-11  0.25126700000E+02  0.25126700000E+02 0. -1.
      622    2    1    2    0    0 -0.12443297267E-01  0.44576546777E-01  0.10111035928E+02  0.10111676238E+02  0.10395624595E+00 0.  0.
       11    1    1    2    0    0  0.24716995253E-01 -0.37828441941E-01  0.18877790118E+01  0.18883198298E+01  0.51109989000E-03 0. -1.
     -623    1    1    2    0    0 -0.12273697986E-01 -0.67481048358E-02  0.11850488789E-02  0.25126703932E+02  0.25126700000E+02 0. -1.
     -611    1    3    3    0    0 -0.23504476002E-01 -0.44119365196E-02  0.66974363795E+00  0.67024507917E+00  0.10000000000E-01 0.  1.
      611    1    3    3    0    0  0.11061178735E-01  0.48988483296E-01  0.94412922905E+01  0.94414311593E+01  0.10000000000E-01 0. -1.
</event>
<event>
 7   0  0.6206631E-02  0.9118800E+02  0.7818608E-02  0.1180000E+00
       11   -1    0    0    0    0  0.00000000000E+00  0.00000000000E+00  0.11999999989E+02  0.12000000000E+02  0.51109989000E-03 0.  1.
     -623   -1    0    0    0    0  0.00000000000E+00  0.00000000000E+00  0.42561509872E-11  0.25126700000E+02  0.25126700000E+02 0. -1.
      622    2    1    2    0    0  0.14401333981E-01 -0.21839882292E-01  0.11403528825E+02  0.11403907048E+02  0.89117386617E-01 0.  0.
       11    1    1    2    0    0  0.33925427926E-02  0.23178312137E-01  0.59562591635E+00  0.59608660189E+00  0.51109989000E-03 0.  1.
     -623    1    1    2    0    0 -0.17793876773E-01 -0.13384298443E-02  0.84524762217E-03  0.25126706350E+02  0.25126700000E+02 0. -1.
     -611    1    3    3    0    0  0.21687708594E-01  0.35195507101E-02  0.10265765455E+02  0.10265793838E+02  0.10000000000E-01 0.  1.
      611    1    3    3    0    0 -0.72863746134E-02 -0.25359433003E-01  0.11377633704E+01  0.11381132101E+01  0.10000000000E-01 0. -1.
</event>
<event>
 7   0  0.6206631E-02  0.9118800E+02  0.7818608E-02  0.1180000E+00
       11   -1    0    0    0    0  0.00000000000E+00  0.00000000000E+00  0.11999999989E+02  0.12000000000E+02  0.51109989000E-03 0.  1.
     -623   -1    0    0    0    0  0.00000000000E+00  0.00000000000E+00  0.42561509872E-11  0.25126700000E+02  0.25126700000E+02 0.  1.
      622    2    1    2    0    0 -0.16358197778E-01  0.94907396095E-02  0.11890923356E+02  0.11891423099E+02  0.10736573497E+00 0.  0.
       11    1    1    2    0    0  0.87606707105E-02 -0.45382765626E-02  0.10812482356E+00  0.10857524579E+00  0.51109989000E-03 0.  1.
     -623    1    1    2    0    0  0.75975270674E-02 -0.49524630469E-02  0.95180926505E-03  0.25126701655E+02  0.25126700000E+02 0.  1.
     -611    1    3    3    0    0 -0.54279981240E-01 -0.19053063981E-01  0.53110305357E+01  0.53113514934E+01  0.10000000000E-01 0.  1.
      611    1    3    3    0    0  0.37921783462E-01  0.28543803590E-01  0.65798928206E+01  0.65800716060E+01  0.10000000000E-01 0. -1.
</event>
<event>
 7   0  0.6206631E-02  0.9118800E+02  0.7818608E-02  0.1180000E+00
       11   -1    0    0    0    0  0.00000000000E+00  0.00000000000E+00  0.11999999989E+02  0.12000000000E+02  0.51109989000E-03 0. -1.
     -623   -1    0    0    0    0  0.00000000000E+00  0.00000000000E+00  0.42561509872E-11  0.25126700000E+02  0.25126700000E+02 0.  1.
      622    2    1    2    0    0 -0.20183556212E-01 -0.29177458237E-01  0.71209660741E+01  0.71217019529E+01  0.96032167570E-01 0.  0.
       11    1    1    2    0    0  0.59539659814E-01 -0.16881330519E-01  0.48778323840E+01  0.48782249823E+01  0.51109989000E-03 0. -1.
     -623    1    1    2    0    0 -0.39356103602E-01  0.46058788756E-01  0.12015309860E-02  0.25126773065E+02  0.25126700000E+02 0.  1.
     -611    1    3    3    0    0 -0.53235024820E-01 -0.25502729740E-01  0.30485392974E+01  0.30491271218E+01  0.10000000000E-01 0.  1.
      611    1    3    3    0    0  0.33051468608E-01 -0.36747284961E-02  0.40724267767E+01  0.40725748311E+01  0.10000000000E-01 0. -1.
</event>
<event>
 7   0  0.6206631E-02  0.9118800E+02  0.7818608E-02  0.1180000E+00
       11   -1    0    0    0    0  0.00000000000E+00  0.00000000000E+00  0.11999999989E+02  0.12000000000E+02  0.51109989000E-03 0. -1.
     -623   -1    0    0    0    0  0.00000000000E+00  0.00000000000E+00  0.42561509872E-11  0.25126700000E+02  0.25126700000E+02 0. -1.
      622    2    1    2    0    0  0.53985740731E-03 -0.25654791870E-01  0.10421328743E+02  0.10421839491E+02  0.99935795995E-01 0.  0.
       11    1    1    2    0    0 -0.19874401335E-02  0.18231209886E-01  0.15780527196E+01  0.15781593627E+01  0.51109989000E-03 0. -1.
     -623    1    1    2    0    0  0.14475827262E-02  0.74235819840E-02  0.61852693562E-03  0.25126701146E+02  0.25126700000E+02 0. -1.
     -611    1    3    3    0    0  0.13479307871E-04 -0.57528866494E-01  0.40253635423E+01  0.40257870309E+01  0.10000000000E-01 0.  1.
      611    1    3    3    0    0  0.52637809944E-03  0.31874074624E-01  0.63959652003E+01  0.63960524604E+01  0.10000000000E-01 0. -1.
</event>
<event>
 7   0  0.6206631E-02  0.9118800E+02  0.7818608E-02  0.1180000E+00
       11   -1    0    0    0    0  0.00000000000E+00  0.00000000000E+00  0.11999999989E+02  0.12000000000E+02  0.51109989000E-03 0. -1.
     -623   -1    0    0    0    0  0.00000000000E+00  0.00000000000E+00  0.42561509872E-11  0.25126700000E+02  0.25126700000E+02 0.  1.
      622    2    1    2    0    0 -0.13624145446E-02 -0.27441129877E-02  0.11994981065E+02  0.11995363886E+02  0.95784179562E-01 0.  0.
       11    1    1    2    0    0  0.15458122647E-02 -0.99168160890E-03  0.42257151942E-02  0.46358235502E-02  0.51109989000E-03 0. -1.
     -623    1    1    2    0    0 -0.18339772012E-03  0.37357945966E-02  0.79320886183E-03  0.25126700291E+02  0.25126700000E+02 0.  1.
     -611    1    3    3    0    0 -0.70395704347E-03  0.84139681384E-02  0.22926431737E+00  0.22963757888E+00  0.10000000000E-01 0.  1.
      611    1    3    3    0    0 -0.65845750114E-03 -0.11158081126E-01  0.11765716748E+02  0.11765726307E+02  0.10000000000E-01 0. -1.
</event>
<event>
 7   0  0.6206631E-02  0.9118800E+02  0.7818608E-02  0.1180000E+00
       11   -1    0    0    0    0  0.00000000000E+00  0.00000000000E+00  0.11999999989E+02  0.12000000000E+02  0.51109989000E-03 0.  1.
     -623   -1    0    0    0    0  0.00000000000E+00  0.00000000000E+00  0.42561509872E-11  0.25126700000E+02  0.25126700000E+02 0. -1.
      622    2    1    2    0    0 -0.41102092814E-01 -0.35614591196E-01  0.11511219849E+02  0.11511689185E+02  0.88587323703E-01 0.  0.
       11    1    1    2    0    0  0.42120824998E-01  0.29078356494E-01  0.48561963630E+00  0.48830974504E+00  0.51109989000E-03 0.  1.
     -623    1    1    2    0    0 -0.10187321833E-02  0.65362347016E-02  0.31605040684E-02  0.25126701070E+02  0.25126700000E+02 0. -1.
     -611    1    3    3    0    0 -0.34771763835E-01 -0.51210730133E-01  0.10846104757E+02  0.10846286001E+02  0.10000000000E-01 0.  1.
      611    1    3    3    0    0 -0.63303289791E-02  0.15596138938E-01  0.66511509124E+00  0.66540318395E+00  0.10000000000E-01 0. -1.
</event>
<event>
 7   0  0.6206631E-02  0.9118800E+02  0.7818608E-02  0.1180000E+00
       11   -1    0    0    0    0  0.00000000000E+00  0.00000000000E+00  0.11999999989E+02  0.12000000000E+02  0.51109989000E-03 0.  1.
     -623   -1    0    0    0    0  0.00000000000E+00  0.00000000000E+00  0.42561509872E-11  0.25126700000E+02  0.25126700000E+02 0.  1.
      622    2    1    2    0    0 -0.17544231480E+00 -0.14294533152E-01  0.53787785964E+01  0.53827575375E+01  0.10878960709E+00 0.  0.
       11    1    1    2    0    0 -0.46254256419E-01  0.48635748190E-01  0.66158999503E+01  0.66162404208E+01  0.51109989000E-03 0.  1.
     -623    1    1    2    0    0  0.22169657122E+00 -0.34341215038E-01  0.53214423927E-02  0.25127702042E+02  0.25126700000E+02 0.  1.
     -611    1    3    3    0    0 -0.56195188989E-01 -0.27848872876E-01  0.32171118095E+01  0.32177386242E+01  0.10000000000E-01 0.  1.
      611    1    3    3    0    0 -0.11924712581E+00  0.13554339724E-01  0.21616667869E+01  0.21650189132E+01  0.10000000000E-01 0. -1.
</event>
<event>
 7   0  0.6206631E-02  0.9118800E+02  0.7818608E-02  0.1180000E+00
       11   -1    0    0    0    0  0.00000000000E+00  0.00000000000E+00  0.11999999989E+02  0.12000000000E+02  0.51109989000E-03 0.  1.
     -623   -1    0    0    0    0  0.00000000000E+00  0.00000000000E+00  0.42561509872E-11  0.25126700000E+02  0.25126700000E+02 0. -1.
      622    2    1    2    0    0 -0.11414832187E-02 -0.23814631490E-02  0.11993916131E+02  0.11994871328E+02  0.15135068004E+00 0.  0.
       11    1    1    2    0    0 -0.10303996834E-02  0.19601392876E-02  0.45974706823E-02  0.51285309102E-02  0.51109989000E-03 0.  1.
     -623    1    1    2    0    0  0.21718829021E-02  0.42132386140E-03  0.14863870801E-02  0.25126700141E+02  0.25126700000E+02 0. -1.
     -611    1    3    3    0    0  0.43782067970E-01 -0.83199608972E-02  0.12191242644E+01  0.12199795339E+01  0.10000000000E-01 0. -1.
      611    1    3    3    0    0 -0.44923551189E-01  0.59384977482E-02  0.10774791867E+02  0.10774891794E+02  0.10000000000E-01 0.  1.
</event>
<event>
 7   0  0.6206631E-02  0.9118800E+02  0.7818608E-02  0.1180000E+00
       11   -1    0    0    0    0  0.00000000000E+00  0.00000000000E+00  0.11999999989E+02  0.12000000000E+02  0.51109989000E-03 0.  1.
     -623   -1    0    0    0    0  0.00000000000E+00  0.00000000000E+00  0.42561509872E-11  0.25126700000E+02  0.25126700000E+02 0. -1.
      622    2    1    2    0    0 -0.18118325558E-01  0.13648944764E-01  0.11677847256E+02  0.11678893170E+02  0.15464337382E+00 0.  0.
       11    1    1    2    0    0 -0.77374037549E-02 -0.33832331294E-01  0.31920366677E+00  0.32108524750E+00  0.51109989000E-03 0.  1.
     -623    1    1    2    0    0  0.25855729313E-01  0.20183386529E-01  0.29490660981E-02  0.25126721582E+02  0.25126700000E+02 0. -1.
     -611    1    3    3    0    0 -0.42151079231E-01  0.34555632830E-01  0.11063917204E+02  0.11064055978E+02  0.10000000000E-01 0.  1.
      611    1    3    3    0    0  0.24032753673E-01 -0.20906688066E-01  0.61393005270E+00  0.61483719184E+00  0.10000000000E-01 0. -1.
</event>
<event>
 7   0  0.6206631E-02  0.9118800E+02  0.7818608E-02  0.1180000E+00
       11   -1    0    0    0    0  0.00000000000E+00  0.00000000000E+00  0.11999999989E+02  0.12000000000E+02  0.51109989000E-03 0.  1.
     -623   -1    0    0    0    0  0.00000000000E+00  0.00000000000E+00  0.42561509872E-11  0.25126700000E+02  0.25126700000E+02 0.  1.
      622    2    1    2    0    0 -0.24287504166E-01  0.64466157850E-01  0.75504949561E+01  0.75527991983E+01  0.17336631490E+00 0.  0.
       11    1    1    2    0    0  0.23787746862E-01 -0.61635848278E-01  0.44467096858E+01  0.44472004818E+01  0.51109989000E-03 0.  1.
     -623    1    1    2    0    0  0.49975730384E-03 -0.28303095724E-02  0.27953472134E-02  0.25126700320E+02  0.25126700000E+02 0.  1.
     -611    1    3    3    0    0 -0.97314497193E-02  0.31654954281E-01  0.26978649215E+00  0.27199538340E+00  0.10000000000E-01 0.  1.
      611    1    3    3    0    0 -0.14556054446E-01  0.32811203569E-01  0.72807084640E+01  0.72808038149E+01  0.10000000000E-01 0. -1.
</event>
<event>
 7   0  0.6206631E-02  0.9118800E+02  0.7818608E-02  0.1180000E+00
       11   -1    0    0    0    0  0.00000000000E+00  0.00000000000E+00  0.11999999989E+02  0.12000000000E+02  0.51109989000E-03 0.  1.
     -623   -1    0    0    0    0  0.00000000000E+00  0.00000000000E+00  0.42561509872E-11  0.25126700000E+02  0.25126700000E+02 0.  1.
      622    2    1    2    0    0 -0.16788050119E-01 -0.35197068817E-01  0.36518683665E+01  0.36574665997E+01  0.19849103206E+00 0.  0.
       11    1    1    2    0    0  0.22082304252E-01  0.48171706287E-01  0.83423605098E+01  0.83425288299E+01  0.51109989000E-03 0.  1.
     -623    1    1    2    0    0 -0.52942541321E-02 -0.12974637470E-01  0.57711128604E-02  0.25126704570E+02  0.25126700000E+02 0.  1.
     -611    1    3    3    0    0 -0.68678249457E-01 -0.27399364810E-02  0.48070979673E+00  0.48570167580E+00  0.10000000000E-01 0. -1.
      611    1    3    3    0    0  0.51890199338E-01 -0.32457132336E-01  0.31711585697E+01  0.31717649239E+01  0.10000000000E-01 0.  1.
</event>
<event>
 7   0  0.6206631E-02  0.9118800E+02  0.7818608E-02  0.1180000E+00
       11   -1    0    0    0    0  0.00000000000E+00  0.00000000000E+00  0.11999999989E+02  0.12000000000E+02  0.51109989000E-03 0. -1.
     -623   -1    0    0    0    0  0.00000000000E+00  0.00000000000E+00  0.42561509872E-11  0.25126700000E+02  0.25126700000E+02 0.  1.
      622    2    1    2    0    0  0.54418836214E-02 -0.25733930904E-02  0.11568762190E+02  0.11568993156E+02  0.72854636642E-01 0.  0.
       11    1    1    2    0    0 -0.10100930466E-02  0.59256002695E-02  0.43096400623E+00  0.43100622839E+00  0.51109989000E-03 0. -1.
     -623    1    1    2    0    0 -0.44317905749E-02 -0.33522071792E-02  0.27379321233E-03  0.25126700616E+02  0.25126700000E+02 0.  1.
     -611    1    3    3    0    0  0.30632191606E-01  0.14344884522E-01  0.82969557104E+01  0.82970306838E+01  0.10000000000E-01 0. -1.
      611    1    3    3    0    0 -0.25190307984E-01 -0.16918277613E-01  0.32718064793E+01  0.32719624719E+01  0.10000000000E-01 0.  1.
</event>
<event>
 7   0  0.6206631E-02  0.9118800E+02  0.7818608E-02  0.1180000E+00
       11   -1    0    0    0    0  0.00000000000E+00  0.00000000000E+00  0.11999999989E+02  0.12000000000E+02  0.51109989000E-03 0.  1.
     -623   -1    0    0    0    0  0.00000000000E+00  0.00000000000E+00  0.42561509872E-11  0.25126700000E+02  0.25126700000E+02 0.  1.
      622    2    1    2    0    0 -0.31973077961E-03 -0.69403772361E-03  0.11984191217E+02  0.11984573039E+02  0.95661994120E-01 0.  0.
       11    1    1    2    0    0 -0.12364173270E-02 -0.17413307204E-02  0.15269696271E-01  0.15426788643E-01  0.51109989000E-03 0.  1.
     -623    1    1    2    0    0  0.15561481066E-02  0.24353684440E-02  0.53907546522E-03  0.25126700172E+02  0.25126700000E+02 0.  1.
     -611    1    3    3    0    0  0.10538349028E-01 -0.38892585635E-01  0.29857576416E+01  0.29860462797E+01  0.10000000000E-01 0. -1.
      611    1    3    3    0    0 -0.10858079807E-01  0.38198547912E-01  0.89984335758E+01  0.89985267597E+01  0.10000000000E-01 0.  1.
</event>
<event>
 7   0  0.6206631E-02  0.9118800E+02  0.7818608E-02  0.1180000E+00
       11   -1    0    0    0    0  0.00000000000E+00  0.00000000000E+00  0.11999999989E+02  0.12000000000E+02  0.51109989000E-03 0.  1.
     -623   -1    0    0    0    0  0.00000000000E+00  0.00000000000E+00  0.42561509872E-11  0.25126700000E+02  0.25126700000E+02 0.  1.
      622    2    1    2    0    0  0.19375237593E-01 -0.20545357485E-01  0.10281762698E+02  0.10282329169E+02  0.10417029961E+00 0.  0.
       11    1    1    2    0    0 -0.14425978483E-01  0.31032820253E-03  0.17176015039E+01  0.17176621881E+01  0.51109989000E-03 0.  1.
     -623    1    1    2    0    0 -0.49492591106E-02  0.20235029282E-01  0.63578773228E-03  0.25126708643E+02  0.25126700000E+02 0.  1.
     -611    1    3    3    0    0 -0.13926301982E-01  0.25896045308E-01  0.12698483256E+01  0.12702280571E+01  0.10000000000E-01 0. -1.
      611    1    3    3    0    0  0.33301539575E-01 -0.46441402793E-01  0.90119143719E+01  0.90121011114E+01  0.10000000000E-01 0.  1.
</event>
<event>
 7   0  0.6206631E-02  0.9118800E+02  0.7818608E-02  0.1180000E+00
       11   -1    0    0    0    0  0.00000000000E+00  0.00000000000E+00  0.11999999989E+02  0.12000000000E+02  0.51109989000E-03 0. -1.
     -623   -1    0    0    0    0  0.00000000000E+00  0.00000000000E+00  0.42561509872E-11  0.25126700000E+02  0.25126700000E+02 0.  1.
      622    2    1    2    0    0 -0.18065874334E-02 -0.99330264788E-02  0.10392177503E+02  0.10392971848E+02  0.12809622127E+00 0.  0.
       11    1    1    2    0    0 -0.10292729840E-01 -0.36278371857E-01  0.16065401065E+01  0.16069827117E+01  0.51109989000E-03 0. -1.
     -623    1    1    2    0    0  0.12099317273E-01  0.46211398335E-01  0.12823791490E-02  0.25126745440E+02  0.25126700000E+02 0.  1.
     -611    1    3    3    0    0  0.54104471417E-01 -0.17480329177E-01  0.75275652819E+01  0.75277866554E+01  0.10000000000E-01 0. -1.
      611    1    3    3    0    0 -0.55911058850E-01  0.75473026982E-02  0.28646122216E+01  0.28651851927E+01  0.10000000000E-01 0.  1.
</event>
<event>
 7   0  0.6206631E-02  0.9118800E+02  0.7818608E-02  0.1180000E+00
       11   -1    0    0    0    0  0.00000000000E+00  0.00000000000E+00  0.11999999989E+02  0.12000000000E+02  0.51109989000E-03 0.  1.
     -623   -1    0    0    0    0  0.00000000000E+00  0.00000000000E+00  0.42561509872E-11  0.25126700000E+02  0.25126700000E+02 0. -1.
      622    2    1    2    0    0 -0.14022083482E-01 -0.10865936995E-01  0.11221159520E+02  0.11221347277E+02  0.62442416246E-01 0.  0.
       11    1    1    2    0    0  0.13711413587E-01  0.11077649328E-01  0.77845300129E+00  0.77865271695E+00  0.51109989000E-03 0.  1.
     -623    1    1    2    0    0  0.31066989514E-03 -0.21171233360E-03  0.38746780580E-03  0.25126700006E+02  0.25126700000E+02 0. -1.
     -611    1    3    3    0    0 -0.31991214538E-01 -0.21851105153E-01  0.58266670696E+01  0.58268044457E+01  0.10000000000E-01 0. -1.
      611    1    3    3    0    0  0.17969131056E-01  0.10985168158E-01  0.53944924506E+01  0.53945428317E+01  0.10000000000E-01 0.  1.
</event>
<event>
 7   0  0.6206631E-02  0.9118800E+02  0.7818608E-02  0.1180000E+00
       11   -1    0    0    0    0  0.00000000000E+00  0.00000000000E+00  0.11999999989E+02  0.12000000000E+02  0.51109989000E-03 0.  1.
     -623   -1    0    0    0    0  0.00000000000E+00  0.00000000000E+00  0.42561509872E-11  0.25126700000E+02  0.25126700000E+02 0. -1.
      622    2    1    2    0    0  0.50247581399E-01 -0.16578638678E-01  0.95118675263E+01  0.95127794127E+01  0.12061776416E+00 0.  0.
       11    1    1    2    0    0 -0.56080695139E-01  0.23142001871E-01  0.24864789340E+01  0.24872189986E+01  0.51109989000E-03 0.  1.
     -623    1    1    2    0    0  0.58331137404E-02 -0.65633631922E-02  0.16535287679E-02  0.25126701589E+02  0.25126700000E+02 0. -1.
     -611    1    3    3    0    0  0.66148939245E-01  0.34453175529E-01  0.46657775987E+01  0.46663843931E+01  0.10000000000E-01 0.  1.
      611    1    3    3    0    0 -0.15901357846E-01 -0.51031814208E-01  0.48460899276E+01  0.48463950196E+01  0.10000000000E-01 0. -1.
</event>
<event>
 7   0  0.6206631E-02  0.9118800E+02  0.7818608E-02  0.1180000E+00
       11   -1    0    0    0    0  0.00000000000E+00  0.00000000000E+00  0.11999999989E+02  0.12000000000E+02  0.51109989000E-03 0. -1.
     -623   -1    0    0    0    0  0.00000000000E+00  0.00000000000E+00  0.42561509872E-11  0.25126700000E+02  0.25126700000E+02 0. -1.
      622    2    1    2    0    0  0.27732042951E-02 -0.19576669006E-02  0.11950881418E+02  0.11951051747E+02  0.63715540880E-01 0.  0.
       11    1    1    2    0    0  0.21439915053E-02 -0.14035637505E-02  0.48877748702E-01  0.48947545721E-01  0.51109989000E-03 0. -1.
     -623    1    1    2    0    0 -0.49171958005E-02  0.33612306511E-02  0.24082228600E-03  0.25126700707E+02  0.25126700000E+02 0. -1.
     -611    1    3    3    0    0  0.23226051941E-01 -0.21383833197E-01  0.71894867246E+01  0.71895629966E+01  0.10000000000E-01 0. -1.
      611    1    3    3    0    0 -0.20452847646E-01  0.19426166296E-01  0.47613946935E+01  0.47614887506E+01  0.10000000000E-01 0.  1.
</event>
<event>
 7   0  0.6206631E-02  0.9118800E+02  0.7818608E-02  0.1180000E+00
       11   -1    0    0    0    0  0.00000000000E+00  0.00000000000E+00  0.11999999989E+02  0.12000000000E+02  0.51109989000E-03 0.  1.
     -623   -1    0    0    0    0  0.00000000000E+00  0.00000000000E+00  0.42561509872E-11  0.25126700000E+02  0.25126700000E+02 0. -1.
      622    2    1    2    0    0  0.42963465509E-01 -0.10945709655E-01  0.11385375444E+02  0.11385986553E+02  0.10931667190E+00 0.  0.
       11    1    1    2    0    0 -0.40283937629E-01  0.66488752164E-02  0.61265367594E+00  0.61401285902E+00  0.51109989000E-03 0.  1.
     -623    1    1    2    0    0 -0.26795278801E-02  0.42968344385E-02  0.19708695682E-02  0.25126700588E+02  0.25126700000E+02 0. -1.
     -611    1    3    3    0    0  0.53394081460E-01 -0.99375985329E-02  0.25443100180E+01  0.25449092619E+01  0.10000000000E-01 0.  1.
      611    1    3    3    0    0 -0.10430615951E-01 -0.10081111220E-02  0.88410654256E+01  0.88410772914E+01  0.10000000000E-01 0. -1.
</event>
<event>
 7   0  0.6206631E-02  0.9118800E+02  0.7818608E-02  0.1180000E+00
       11   -1    0    0    0    0  0.00000000000E+00  0.00000000000E+00  0.11999999989E+02  0.12000000000E+02  0.51109989000E-03 0.  1.
     -623   -1    0    0    0    0  0.00000000000E+00  0.00000000000E+00  0.42561509872E-11  0.25126700000E+02  0.25126700000E+02 0. -1.
      622    2    1    2    0    0 -0.26669299950E-01  0.12028462925E-04  0.88627481118E+01  0.88634078899E+01  0.10480495264E+00 0.  0.
       11    1    1    2    0    0 -0.65366362700E-02  0.10791290941E-01  0.31365424196E+01  0.31365678362E+01  0.51109989000E-03 0.  1.
     -623    1    1    2    0    0  0.33205936220E-01 -0.10803319404E-01  0.70945773441E-03  0.25126724274E+02  0.25126700000E+02 0. -1.
     -611    1    3    3    0    0  0.17647031252E-02 -0.76459492578E-03  0.81674410692E+01  0.81674474175E+01  0.10000000000E-01 0.  1.
      611    1    3    3    0    0 -0.28434003076E-01  0.77662338871E-03  0.69530704254E+00  0.69596047236E+00  0.10000000000E-01 0. -1.
</event>
<event>
 7   0  0.6206631E-02  0.9118800E+02  0.7818608E-02  0.1180000E+00
       11   -1    0    0    0    0  0.00000000000E+00  0.00000000000E+00  0.11999999989E+02  0.12000000000E+02  0.51109989000E-03 0. -1.
     -623   -1    0    0    0    0  0.00000000000E+00  0.00000000000E+00  0.42561509872E-11  0.25126700000E+02  0.25126700000E+02 0. -1.
      622    2    1    2    0    0  0.25689327781E-02 -0.35443559579E-02  0.11913423566E+02  0.11913766096E+02  0.90235108345E-01 0.  0.
       11    1    1    2    0    0  0.39945967405E-02  0.33330778508E-02  0.86074443795E-01  0.86233040703E-01  0.51109989000E-03 0. -1.
     -623    1    1    2    0    0 -0.65635295186E-02  0.21127810711E-03  0.50197957758E-03  0.25126700863E+02  0.25126700000E+02 0. -1.
     -611    1    3    3    0    0 -0.12621822948E-02  0.31593385816E-01  0.20033787440E+01  0.20036531953E+01  0.10000000000E-01 0.  1.
      611    1    3    3    0    0  0.38311150730E-02 -0.35137741774E-01  0.99100448218E+01  0.99101129009E+01  0.10000000000E-01 0. -1.
</event>
<event>
 7   0  0.6206631E-02  0.9118800E+02  0.7818608E-02  0.1180000E+00
       11   -1    0    0    0    0  0.00000000000E+00  0.00000000000E+00  0.11999999989E+02  0.12000000000E+02  0.51109989000E-03 0.  1.
     -623   -1    0    0    0    0  0.00000000000E+00  0.00000000000E+00  0.42561509872E-11  0.25126700000E+02  0.25126700000E+02 0.  1.
      622    2    1    2    0    0  0.94786005967E-02  0.31647979263E-01  0.80496820785E+01  0.80503707234E+01  0.99978902298E-01 0.  0.
       11    1    1    2    0    0 -0.10631931197E-01 -0.31441428296E-01  0.39494897438E+01  0.39496292357E+01  0.51109989000E-03 0.  1.
     -623    1    1    2    0    0  0.11533306007E-02 -0.20655096684E-03  0.82816682782E-03  0.25126700041E+02  0.25126700000E+02 0.  1.
     -611    1    3    3    0    0  0.23223881580E-01  0.20364905988E-01  0.79828145851E+00  0.79894140278E+00  0.10000000000E-01 0. -1.
      611    1    3    3    0    0 -0.13745280983E-01  0.11283073275E-01  0.72514006200E+01  0.72514293206E+01  0.10000000000E-01 0.  1.
</event>
<event>
 7   0  0.6206631E-02  0.9118800E+02  0.7818608E-02  0.1180000E+00
       11   -1    0    0    0    0  0.00000000000E+00  0.00000000000E+00  0.11999999989E+02  0.12000000000E+02  0.51109989000E-03 0. -1.
     -623   -1    0    0    0    0  0.00000000000E+00  0.00000000000E+00  0.42561509872E-11  0.25126700000E+02  0.25126700000E+02 0. -1.
      622    2    1    2    0    0  0.17048535825E-02 -0.14151405624E-01  0.11870335302E+02  0.11870819517E+02  0.10626687508E+00 0.  0.
       11    1    1    2    0    0  0.64009750622E-03  0.14069676854E-01  0.12840924432E+00  0.12918034209E+00  0.51109989000E-03 0. -1.
     -623    1    1    2    0    0 -0.23449510887E-02  0.81728770324E-04  0.12554425627E-02  0.25126700141E+02  0.25126700000E+02 0. -1.
     -611    1    3    3    0    0  0.35531540060E-01  0.67338777439E-02  0.98343230144E+01  0.98343945918E+01  0.10000000000E-01 0. -1.
      611    1    3    3    0    0 -0.33826686477E-01 -0.20885283368E-01  0.20360122878E+01  0.20364249252E+01  0.10000000000E-01 0.  1.
</event>
<event>
 7   0  0.6206631E-02  0.9118800E+02  0.7818608E-02  0.1180000E+00
       11   -1    0    0    0    0  0.00000000000E+00  0.00000000000E+00  0.11999999989E+02  0.12000000000E+02  0.51109989000E-03 0.  1.
     -623   -1    0    0    0    0  0.00000000000E+00  0.00000000000E+00  0.42561509872E-11  0.25126700000E+02  0.25126700000E+02 0. -1.
      622    2    1    2    0    0  0.17242320777E-03 -0.18108648162E-03  0.11991576368E+02  0.11991915336E+02  0.90164136441E-01 0.  0.
       11    1    1    2    0    0  0.34184110319E-03 -0.21717568318E-03  0.80583110389E-02  0.80846533950E-02  0.51109989000E-03 0.  1.
     -623    1    1    2    0    0 -0.51426431097E-03  0.39826216481E-03  0.36531045918E-03  0.25126700011E+02  0.25126700000E+02 0. -1.
     -611    1    3    3    0    0  0.19576589783E-01 -0.16996138225E-02  0.11237290026E+02  0.11237311657E+02  0.10000000000E-01 0.  1.
      611    1    3    3    0    0 -0.19404166575E-01  0.15185273408E-02  0.75428634127E+00  0.75460367891E+00  0.10000000000E-01 0. -1.
</event>
<event>
 7   0  0.6206631E-02  0.9118800E+02  0.7818608E-02  0.1180000E+00
       11   -1    0    0    0    0  0.00000000000E+00  0.00000000000E+00  0.11999999989E+02  0.12000000000E+02  0.51109989000E-03 0. -1.
     -623   -1    0    0    0    0  0.00000000000E+00  0.00000000000E+00  0.42561509872E-11  0.25126700000E+02  0.25126700000E+02 0.  1.
      622    2    1    2    0    0 -0.15417541489E-01  0.33978093908E-01  0.11627606907E+02  0.11628107854E+02  0.10128010550E+00 0.  0.
       11    1    1    2    0    0  0.16172724431E-01 -0.65490799922E-01  0.36570143120E+00  0.37187148304E+00  0.51109989000E-03 0. -1.
     -623    1    1    2    0    0 -0.75518294203E-03  0.31512706014E-01  0.66916508071E-02  0.25126720663E+02  0.25126700000E+02 0.  1.
     -611    1    3    3    0    0  0.13473767417E-01 -0.47085654531E-02  0.38640178293E+00  0.38679458482E+00  0.10000000000E-01 0. -1.
      611    1    3    3    0    0 -0.28891308906E-01  0.38686659361E-01  0.11241205124E+02  0.11241313269E+02  0.10000000000E-01 0. -1.
</event>
<event>
 7   0  0.6206631E-02  0.9118800E+02  0.7818608E-02  0.1180000E+00
       11   -1    0    0    0    0  0.00000000000E+00  0.00000000000E+00  0.11999999989E+02  0.12000000000E+02  0.51109989000E-03 0. -1.
     -623   -1    0    0    0    0  0.00000000000E+00  0.00000000000E+00  0.42561509872E-11  0.25126700000E+02  0.25126700000E+02 0. -1.
      622    2    1    2    0    0  0.22130341163E-02 -0.22670919281E-01  0.10298452555E+02  0.10299130912E+02  0.11598991904E+00 0.  0.
       11    1    1    2    0    0 -0.66218601711E-02 -0.38972499743E-01  0.17003335129E+01  0.17007930565E+01  0.51109989000E-03 0. -1.
     -623    1    1    2    0    0  0.44088260548E-02  0.61643419025E-01  0.12139214448E-02  0.25126776031E+02  0.25126700000E+02 0. -1.
     -611    1    3    3    0    0  0.39759075079E-01  0.29516418386E-01  0.34586698378E+01  0.34590387465E+01  0.10000000000E-01 0.  1.
      611    1    3    3    0    0 -0.37546040962E-01 -0.52187337668E-01  0.68397827169E+01  0.68400921659E+01  0.10000000000E-01 0. -1.
</event>
<event>
 7   0  0.6206631E-02  0.9118800E+02  0.7818608E-02  0.1180000E+00
       11   -1    0    0    0    0  0.00000000000E+00  0.00000000000E+00  0.11999999989E+02  0.12000000000E+02  0.51109989000E-03 0. -1.
     -623   -1    0    0    0    0  0.00000000000E+00  0.00000000000E+00  0.42561509872E-11  0.25126700000E+02  0.25126700000E+02 0. -1.
      622    2    1    2    0    0 -0.22885497360E-02 -0.74485729930E-03  0.11976801623E+02  0.11977305571E+02  0.10984459630E+00 0.  0.
       11    1    1    2    0    0  0.18602975887E-02  0.20128656859E-03  0.22611366751E-01  0.22694412371E-01  0.51109989000E-03 0. -1.
     -623    1    1    2    0    0  0.42825214726E-03  0.54357073071E-03  0.58699925948E-03  0.25126700016E+02  0.25126700000E+02 0. -1.
     -611    1    3    3    0    0 -0.37525825383E-01  0.38784997377E-01  0.68849277452E+01  0.68851465141E+01  0.10000000000E-01 0.  1.
      611    1    3    3    0    0  0.35237275647E-01 -0.39529854677E-01  0.50918738779E+01  0.50921590572E+01  0.10000000000E-01 0. -1.
</event>
<event>
 7   0  0.6206631E-02  0.9118800E+02  0.7818608E-02  0.1180000E+00
       11   -1    0    0    0    0  0.00000000000E+00  0.00000000000E+00  0.11999999989E+02  0.12000000000E+02  0.51109989000E-03 0. -1.
     -623   -1    0    0    0    0  0.00000000000E+00  0.00000000000E+00  0.42561509872E-11  0.25126700000E+02  0.25126700000E+02 0.  1.
      622    2    1    2    0    0 -0.15607128437E-01 -0.31064456488E-01  0.10897894512E+02  0.10898410002E+02  0.10013588312E+00 0.  0.
       11    1    1    2    0    0  0.76754819413E-03  0.28931634810E-01  0.11012051329E+01  0.11015855095E+01  0.51109989000E-03 0. -1.
     -623    1    1    2    0    0  0.14839580243E-01  0.21328216780E-02  0.90034439330E-03  0.25126704489E+02  0.25126700000E+02 0.  1.
     -611    1    3    3    0    0 -0.30846862017E-01  0.21533904082E-01  0.71090460195E+01  0.71091525898E+01  0.10000000000E-01 0.  1.
      611    1    3    3    0    0  0.15239733580E-01 -0.52598360570E-01  0.37888484923E+01  0.37892574120E+01  0.10000000000E-01 0. -1.
</event>
<event>
 7   0  0.6206631E-02  0.9118800E+02  0.7818608E-02  0.1180000E+00
       11   -1    0    0    0    0  0.00000000000E+00  0.00000000000E+00  0.11999999989E+02  0.12000000000E+02  0.51109989000E-03 0.  1.
     -623   -1    0    0    0    0  0.00000000000E+00  0.00000000000E+00  0.42561509872E-11  0.25126700000E+02  0.25126700000E+02 0. -1.
      622    2    1    2    0    0 -0.58986585050E-02 -0.10562093106E-02  0.11994176589E+02  0.11994635691E+02  0.10477308159E+00 0.  0.
       11    1    1    2    0    0  0.27705692363E-02  0.33662859827E-02  0.30825021751E-02  0.53638585001E-02  0.51109989000E-03 0.  1.
     -623    1    1    2    0    0  0.31280892688E-02 -0.23100766722E-02  0.27408977024E-02  0.25126700450E+02  0.25126700000E+02 0. -1.
     -611    1    3    3    0    0 -0.11794447174E-01  0.24313408249E-01  0.97939208920E+00  0.97981585780E+00  0.10000000000E-01 0. -1.
      611    1    3    3    0    0  0.58957886690E-02 -0.25369617560E-01  0.11014784500E+02  0.11014819833E+02  0.10000000000E-01 0.  1.
</event>
<event>
 7   0  0.6206631E-02  0.9118800E+02  0.7818608E-02  0.1180000E+00
       11   -1    0    0    0    0  0.00000000000E+00  0.00000000000E+00  0.11999999989E+02  0.12000000000E+02  0.51109989000E-03 0. -1.
     -623   -1    0    0    0    0  0.00000000000E+00  0.00000000000E+00  0.42561509872E-11  0.25126700000E+02  0.25126700000E+02 0. -1.
      622    2    1    2    0    0  0.68754749027E-02 -0.35233366819E-01  0.41368815635E+01  0.41384483530E+01  0.10806034049E+00 0.  0.
       11    1    1    2    0    0  0.56348454658E-02  0.23893260090E-01  0.78615075770E+01  0.78615459220E+01  0.51109989000E-03 0. -1.
     -623    1    1    2    0    0 -0.12510320369E-01  0.11340106729E-01  0.16108485650E-02  0.25126705725E+02  0.25126700000E+02 0. -1.
     -611    1    3    3    0    0 -0.40100130493E-01 -0.36190242095E-01  0.30633827284E+01  0.30638752414E+01  0.10000000000E-01 0. -1.
      611    1    3    3    0    0  0.46975605395E-01  0.95687527582E-03  0.10734988352E+01  0.10745731116E+01  0.10000000000E-01 0.  1.
</event>
<event>
 7   0  0.6206631E-02  0.9118800E+02  0.7818608E-02  0.1180000E+00
       11   -1    0    0    0    0  0.00000000000E+00  0.00000000000E+00  0.11999999989E+02  0.12000000000E+02  0.51109989000E-03 0. -1.
     -623   -1    0    0    0    0  0.00000000000E+00  0.00000000000E+00  0.42561509872E-11  0.25126700000E+02  0.25126700000E+02 0. -1.
      622    2    1    2    0    0 -0.27989856641E-03  0.24254808173E-02  0.11997131991E+02  0.11997495168E+02  0.93318392927E-01 0.  0.
       11    1    1    2    0    0 -0.10359576467E-03  0.47829492721E-03  0.24026208725E-02  0.25046573250E-02  0.51109989000E-03 0. -1.
     -623    1    1    2    0    0  0.38349433108E-03 -0.29037757445E-02  0.46537705698E-03  0.25126700175E+02  0.25126700000E+02 0. -1.
     -611    1    3    3    0    0  0.27370394581E-01  0.27837414670E-01  0.92556844304E+01  0.92557721632E+01  0.10000000000E-01 0. -1.
      611    1    3    3    0    0 -0.27650293148E-01 -0.25411933853E-01  0.27414475608E+01  0.27417230045E+01  0.10000000000E-01 0.  1.
</event>
<event>
 7   0  0.6206631E-02  0.9118800E+02  0.7818608E-02  0.1180000E+00
       11   -1    0    0    0    0  0.00000000000E+00  0.00000000000E+00  0.11999999989E+02  0.12000000000E+02  0.51109989000E-03 0. -1.
     -623   -1    0    0    0    0  0.00000000000E+00  0.00000000000E+00  0.42561509872E-11  0.25126700000E+02  0.25126700000E+02 0.  1.
      622    2    1    2    0    0 -0.34204389952E-02 -0.69707312496E-02  0.11748888390E+02  0.11749154541E+02  0.78700181188E-01 0.  0.
       11    1    1    2    0    0  0.25766709639E-02  0.69981554790E-02  0.25073404488E+00  0.25084544225E+00  0.51109989000E-03 0. -1.
     -623    1    1    2    0    0  0.84376803138E-03 -0.27424229409E-04  0.37755371826E-03  0.25126700017E+02  0.25126700000E+02 0.  1.
     -611    1    3    3    0    0 -0.10639025502E-01 -0.32305029145E-01  0.97829898158E+01  0.97830540497E+01  0.10000000000E-01 0. -1.
      611    1    3    3    0    0  0.72185865069E-02  0.25334297896E-01  0.19658985747E+01  0.19661004910E+01  0.10000000000E-01 0.  1.
</event>
<event>
 7   0  0.6206631E-02  0.9118800E+02  0.7818608E-02  0.1180000E+00
       11   -1    0    0    0    0  0.00000000000E+00  0.00000000000E+00  0.11999999989E+02  0.12000000000E+02  0.51109989000E-03 0.  1.
     -623   -1    0    0    0    0  0.00000000000E+00  0.00000000000E+00  0.42561509872E-11  0.25126700000E+02  0.25126700000E+02 0.  1.
      622    2    1    2    0    0  0.62793313668E-02  0.46178983786E-02  0.10597757143E+02  0.10598255241E+02  0.10245451066E+00 0.  0.
       11    1    1    2    0    0 -0.10030434505E-01 -0.26432950634E-01  0.14014497600E+01  0.14017349969E+01  0.51109989000E-03 0.  1.
     -623    1    1    2    0    0  0.37511031380E-02  0.21815052256E-01  0.79308600867E-03  0.25126709762E+02  0.25126700000E+02 0.  1.
     -611    1    3    3    0    0 -0.25403243988E-01 -0.18583134533E-01  0.13315129103E+01  0.13319224032E+01  0.10000000000E-01 0.  1.
      611    1    3    3    0    0  0.31682575355E-01  0.23201032911E-01  0.92662442328E+01  0.92663328375E+01  0.10000000000E-01 0. -1.
</event>
<event>
 7   0  0.6206631E-02  0.9118800E+02  0.7818608E-02  0.1180000E+00
       11   -1    0    0    0    0  0.00000000000E+00  0.00000000000E+00  0.11999999989E+02  0.12000000000E+02  0.51109989000E-03 0. -1.
     -623   -1    0    0    0    0  0.00000000000E+00  0.00000000000E+00  0.42561509872E-11  0.25126700000E+02  0.25126700000E+02 0.  1.
      622    2    1    2    0    0  0.12885860014E-01 -0.59531922586E-02  0.10228458957E+02  0.10228960123E+02  0.10025503670E+00 0.  0.
       11    1    1    2    0    0 -0.13845446193E-01 -0.75073226531E-02  0.17709661403E+01  0.17710362469E+01  0.51109989000E-03 0. -1.
     -623    1    1    2    0    0  0.95958617894E-03  0.13460514912E-01  0.57489176071E-03  0.25126703630E+02  0.25126700000E+02 0.  1.
     -611    1    3    3    0    0 -0.41462057048E-01  0.88035920989E-02  0.39213035604E+01  0.39215453864E+01  0.10000000000E-01 0.  1.
      611    1    3    3    0    0  0.54347917062E-01 -0.14756784357E-01  0.63071553966E+01  0.63074147363E+01  0.10000000000E-01 0. -1.
</event>
<event>
 7   0  0.6206631E-02  0.9118800E+02  0.7818608E-02  0.1180000E+00
       11   -1    0    0    0    0  0.00000000000E+00  0.00000000000E+00  0.11999999989E+02  0.12000000000E+02  0.51109989000E-03 0.  1.
     -623   -1    0    0    0    0  0.00000000000E+00  0.00000000000E+00  0.42561509872E-11  0.25126700000E+02  0.25126700000E+02 0. -1.
      622    2    1    2    0    0  0.71592064266E-01  0.13083715581E+00  0.39345061825E+01  0.39395111630E+01  0.13101724613E+00 0.  0.
       11    1    1    2    0    0 -0.32099500047E-01 -0.12494269157E-01  0.80601049185E+01  0.80601785367E+01  0.51109989000E-03 0.  1.
     -623    1    1    2    0    0 -0.39492564218E-01 -0.11834288666E+00  0.53888881671E-02  0.25127010300E+02  0.25126700000E+02 0. -1.
     -611    1    3    3    0    0  0.97773673449E-01  0.10776696361E+00  0.36164804285E+01  0.36194204093E+01  0.10000000000E-01 0.  1.
      611    1    3    3    0    0 -0.26181609183E-01  0.23070192203E-01  0.31802575403E+00  0.32009075378E+00  0.10000000000E-01 0. -1.
</event>
<event>
 7   0  0.6206631E-02  0.9118800E+02  0.7818608E-02  0.1180000E+00
       11   -1    0    0    0    0  0.00000000000E+00  0.00000000000E+00  0.11999999989E+02  0.12000000000E+02  0.51109989000E-03 0. -1.
     -623   -1    0    0    0    0  0.00000000000E+00  0.00000000000E+00  0.42561509872E-11  0.25126700000E+02  0.25126700000E+02 0. -1.
      622    2    1    2    0    0 -0.60337583061E-03  0.33677391458E-03  0.11995015879E+02  0.11995354771E+02  0.90164672008E-01 0.  0.
       11    1    1    2    0    0 -0.17445690223E-03  0.58733662877E-03  0.45761587676E-02  0.46451966286E-02  0.51109989000E-03 0. -1.
     -623    1    1    2    0    0  0.77783273284E-03 -0.92411054335E-03  0.40795136183E-03  0.25126700032E+02  0.25126700000E+02 0. -1.
     -611    1    3    3    0    0  0.27414326515E-01 -0.29889114885E-01  0.81066212047E+01  0.81067288261E+01  0.10000000000E-01 0. -1.
      611    1    3    3    0    0 -0.28017702346E-01  0.30225888799E-01  0.38883946743E+01  0.38886259449E+01  0.10000000000E-01 0.  1.
</event>
<event>
 7   0  0.6206631E-02  0.9118800E+02  0.7818608E-02  0.1180000E+00
       11   -1    0    0    0    0  0.00000000000E+00  0.00000000000E+00  0.11999999989E+02  0.12000000000E+02  0.51109989000E-03 0.  1.
     -623   -1    0    0    0    0  0.00000000000E+00  0.00000000000E+00  0.42561509872E-11  0.25126700000E+02  0.25126700000E+02 0. -1.
      622    2    1    2    0    0  0.53035475117E-02  0.27432655376E-01  0.61521275573E+01  0.61526334697E+01  0.73786532784E-01 0.  0.
       11    1    1    2    0    0 -0.53023694167E-02 -0.25851283977E-01  0.58473069030E+01  0.58473664742E+01  0.51109989000E-03 0.  1.
     -623    1    1    2    0    0 -0.11780950366E-05 -0.15813713990E-02  0.56552875811E-03  0.25126700056E+02  0.25126700000E+02 0. -1.
     -611    1    3    3    0    0 -0.10930605663E-01  0.42622637260E-01  0.23837071454E+01  0.23841342082E+01  0.10000000000E-01 0.  1.
      611    1    3    3    0    0  0.16234153175E-01 -0.15189981884E-01  0.37684204119E+01  0.37684992615E+01  0.10000000000E-01 0.  1.
</event>
<event>
 7   0  0.6206631E-02  0.9118800E+02  0.7818608E-02  0.1180000E+00
       11   -1    0    0    0    0  0.00000000000E+00  0.00000000000E+00  0.11999999989E+02  0.12000000000E+02  0.51109989000E-03 0. -1.
     -623   -1    0    0    0    0  0.00000000000E+00  0.00000000000E+00  0.42561509872E-11  0.25126700000E+02  0.25126700000E+02 0.  1.
      622    2    1    2    0    0  0.13469933230E-01 -0.23950352010E-01  0.11824021987E+02  0.11824662647E+02  0.11998209701E+00 0.  0.
       11    1    1    2    0    0 -0.11232898165E-01  0.33345371380E-01  0.17176745853E+00  0.17533514430E+00  0.51109989000E-03 0. -1.
     -623    1    1    2    0    0 -0.22370350659E-02 -0.93950193703E-02  0.42105435044E-02  0.25126702209E+02  0.25126700000E+02 0.  1.
     -611    1    3    3    0    0 -0.18384837812E-02 -0.31836645415E-01  0.11489430896E+02  0.11489479504E+02  0.10000000000E-01 0. -1.
      611    1    3    3    0    0  0.15308417012E-01  0.78862934051E-02  0.33459109104E+00  0.33518314316E+00  0.10000000000E-01 0.  1.
</event>
<event>
 7   0  0.6206631E-02  0.9118800E+02  0.7818608E-02  0.1180000E+00
       11   -1    0    0    0    0  0.00000000000E+00  0.00000000000E+00  0.11999999989E+02  0.12000000000E+02  0.51109989000E-03 0. -1.
     -623   -1    0    0    0    0  0.00000000000E+00  0.00000000000E+00  0.42561509872E-11  0.25126700000E+02  0.25126700000E+02 0. -1.
      622    2    1    2    0    0  0.26922651114E-01 -0.11021099257E-01  0.10445488061E+02  0.10445864620E+02  0.83788640762E-01 0.  0.
       11    1    1    2    0    0 -0.23837610658E-01  0.47611137287E-01  0.15531960471E+01  0.15541085142E+01  0.51109989000E-03 0. -1.
     -623    1    1    2    0    0 -0.30850404559E-02 -0.36590038030E-01  0.13158808412E-02  0.25126726865E+02  0.25126700000E+02 0. -1.
     -611    1    3    3    0    0 -0.38957507144E-02 -0.41744979922E-01  0.58913853098E+01  0.58915429803E+01  0.10000000000E-01 0.  1.
      611    1    3    3    0    0  0.30818401829E-01  0.30723880665E-01  0.45541027513E+01  0.45543216400E+01  0.10000000000E-01 0. -1.
</event>
<event>
 7   0  0.6206631E-02  0.9118800E+02  0.7818608E-02  0.1180000E+00
       11   -1    0    0    0    0  0.00000000000E+00  0.00000000000E+00  0.11999999989E+02  0.12000000000E+02  0.51109989000E-03 0. -1.
     -623   -1    0    0    0    0  0.00000000000E+00  0.00000000000E+00  0.42561509872E-11  0.25126700000E+02  0.25126700000E+02 0.  1.
      622    2    1    2    0    0 -0.20392299318E-01  0.11941464320E+00  0.10307121630E+02  0.10308383145E+02  0.10644748293E+00 0.  0.
       11    1    1    2    0    0  0.53551908899E-02 -0.13365182568E+00  0.16863107843E+01  0.16916074636E+01  0.51109989000E-03 0. -1.
     -623    1    1    2    0    0  0.15037108428E-01  0.14237182477E-01  0.65675748131E-02  0.25126709391E+02  0.25126700000E+02 0.  1.
     -611    1    3    3    0    0  0.29171525534E-01  0.11045961113E-01  0.11074750102E+01  0.11079593356E+01  0.10000000000E-01 0.  1.
      611    1    3    3    0    0 -0.49563824851E-01  0.10836868209E+00  0.91996466198E+01  0.92004238095E+01  0.10000000000E-01 0. -1.
</event>
<event>
 7   0  0.6206631E-02  0.9118800E+02  0.7818608E-02  0.1180000E+00
       11   -1    0    0    0    0  0.00000000000E+00  0.00000000000E+00  0.11999999989E+02  0.12000000000E+02  0.51109989000E-03 0.  1.
     -623   -1    0    0    0    0  0.00000000000E+00  0.00000000000E+00  0.42561509872E-11  0.25126700000E+02  0.25126700000E+02 0. -1.
      622    2    1    2    0    0  0.52215790797E-01  0.97861905044E-01  0.52972169463E+01  0.52991103712E+01  0.88090342534E-01 0.  0.
       11    1    1    2    0    0 -0.55323965403E-01 -0.94248425207E-01  0.66999977554E+01  0.67008890224E+01  0.51109989000E-03 0.  1.
     -623    1    1    2    0    0  0.31081746066E-02 -0.36134798370E-02  0.27852874269E-02  0.25126700606E+02  0.25126700000E+02 0. -1.
     -611    1    3    3    0    0  0.20461146759E-01  0.69125920719E-01  0.16238773012E+01  0.16255074718E+01  0.10000000000E-01 0.  1.
      611    1    3    3    0    0  0.31754644038E-01  0.28735984325E-01  0.36733396451E+01  0.36736028994E+01  0.10000000000E-01 0. -1.
</event>
<event>
 7   0  0.6206631E-02  0.9118800E+02  0.7818608E-02  0.1180000E+00
       11   -1    0    0    0    0  0.00000000000E+00  0.00000000000E+00  0.11999999989E+02  0.12000000000E+02  0.51109989000E-03 0.  1.
     -623   -1    0    0    0    0  0.00000000000E+00  0.00000000000E+00  0.42561509872E-11  0.25126700000E+02  0.25126700000E+02 0.  1.
      622    2    1    2    0    0 -0.23154389737E-02 -0.57774285413E-02  0.11912065415E+02  0.11912651807E+02  0.11803336319E+00 0.  0.
       11    1    1    2    0    0  0.80470927243E-03  0.56669600104E-02  0.87158898095E-01  0.87348135258E-01  0.51109989000E-03 0.  1.
     -623    1    1    2    0    0  0.15107297012E-02  0.11046853094E-03  0.77567554437E-03  0.25126700058E+02  0.25126700000E+02 0.  1.
     -611    1    3    3    0    0  0.10333145533E-01  0.53453105301E-01  0.65872010908E+01  0.65874336596E+01  0.10000000000E-01 0.  1.
      611    1    3    3    0    0 -0.12648584507E-01 -0.59230533843E-01  0.53248643247E+01  0.53252181475E+01  0.10000000000E-01 0. -1.
</event>
<event>
 7   0  0.6206631E-02  0.9118800E+02  0.7818608E-02  0.1180000E+00
       11   -1    0    0    0    0  0.00000000000E+00  0.00000000000E+00  0.11999999989E+02  0.12000000000E+02  0.51109989000E-03 0.  1.
     -623   -1    0    0    0    0  0.00000000000E+00  0.00000000000E+00  0.42561509872E-11  0.25126700000E+02  0.25126700000E+02 0. -1.
      622    2    1    2    0    0  0.15980695411E-03 -0.93700221906E-02  0.11803934559E+02  0.11803984227E+02  0.32935554321E-01 0.  0.
       11    1    1    2    0    0  0.13832640850E-02  0.74447779583E-02  0.19586867035E+00  0.19601565087E+00  0.51109989000E-03 0.  1.
     -623    1    1    2    0    0 -0.15430710391E-02  0.19252442321E-02  0.19676020545E-03  0.25126700122E+02  0.25126700000E+02 0. -1.
     -611    1    3    3    0    0  0.93444451893E-03 -0.88003944415E-02  0.10580382315E+02  0.10580390742E+02  0.10000000000E-01 0.  1.
      611    1    3    3    0    0 -0.77463756482E-03 -0.56962774905E-03  0.12235522437E+01  0.12235934854E+01  0.10000000000E-01 0.  1.
</event>
<event>
 7   0  0.6206631E-02  0.9118800E+02  0.7818608E-02  0.1180000E+00
       11   -1    0    0    0    0  0.00000000000E+00  0.00000000000E+00  0.11999999989E+02  0.12000000000E+02  0.51109989000E-03 0.  1.
     -623   -1    0    0    0    0  0.00000000000E+00  0.00000000000E+00  0.42561509872E-11  0.25126700000E+02  0.25126700000E+02 0. -1.
      622    2    1    2    0    0 -0.86560329646E-02  0.43679364627E-03  0.11888318480E+02  0.11888862473E+02  0.11339976704E+00 0.  0.
       11    1    1    2    0    0  0.46482916501E-02  0.30016251710E-02  0.11099795881E+00  0.11113696258E+00  0.51109989000E-03 0.  1.
     -623    1    1    2    0    0  0.40077413145E-02 -0.34384188172E-02  0.68355027671E-03  0.25126700564E+02  0.25126700000E+02 0. -1.
     -611    1    3    3    0    0 -0.25707139089E-01  0.99456828688E-03  0.72326359949E+00  0.72379008042E+00  0.10000000000E-01 0. -1.
      611    1    3    3    0    0  0.17051106124E-01 -0.55777464061E-03  0.11165054881E+02  0.11165072393E+02  0.10000000000E-01 0.  1.
</event>
<event>
 6   0  0.6206631E-02  0.9118800E+02  0.7818608E-02  0.1180000E+00
       11   -1    0    0    0    0  0.00000000000E+00  0.00000000000E+00  0.11999999989E+02  0.12000000000E+02  0.51109989000E-03 0. -1.
     -623   -1    0    0    0    0  0.00000000000E+00  0.00000000000E+00  0.42561509872E-11  0.25126700000E+02  0.25126700000E+02 0.  1.
       11    1    1    2    0    0  0.18036422281E+00  0.52287265512E-01  0.41994635359E+01  0.42036602458E+01  0.51109989000E-03 0. -1.
     -623    1    1    2    0    0 -0.37436500123E-02 -0.10781365440E-01  0.10117246788E-01  0.25126704629E+02  0.25126700000E+02 0.  1.
     -611    1    1    2    0    0  0.50055758857E-01 -0.26516270843E-01  0.73296697056E+00  0.73522055979E+00  0.10000000000E-01 0.  1.
      611    1    1    2    0    0 -0.22667633165E+00 -0.14989629229E-01  0.70574522358E+01  0.70611145657E+01  0.10000000000E-01 0. -1.
</event>
<event>
 7   0  0.6206631E-02  0.9118800E+02  0.7818608E-02  0.1180000E+00
       11   -1    0    0    0    0  0.00000000000E+00  0.00000000000E+00  0.11999999989E+02  0.12000000000E+02  0.51109989000E-03 0. -1.
     -623   -1    0    0    0    0  0.00000000000E+00  0.00000000000E+00  0.42561509872E-11  0.25126700000E+02  0.25126700000E+02 0.  1.
      622    2    1    2    0    0 -0.94095070019E-02  0.17886754395E-01  0.10133695624E+02  0.10134421279E+02  0.11957916024E+00 0.  0.
       11    1    1    2    0    0  0.12768303251E-01 -0.15718634812E-01  0.18654684026E+01  0.18655783895E+01  0.51109989000E-03 0. -1.
     -623    1    1    2    0    0 -0.33587962491E-02 -0.21681195832E-02  0.83596246618E-03  0.25126700332E+02  0.25126700000E+02 0.  1.
     -611    1    3    3    0    0 -0.51502911597E-01  0.42316296477E-01  0.44758584641E+01  0.44763659602E+01  0.10000000000E-01 0. -1.
      611    1    3    3    0    0  0.42093404595E-01 -0.24429542081E-01  0.56578371600E+01  0.56580553184E+01  0.10000000000E-01 0.  1.
</event>
<event>
 7   0  0.6206631E-02  0.9118800E+02  0.7818608E-02  0.1180000E+00
       11   -1    0    0    0    0  0.00000000000E+00  0.00000000000E+00  0.11999999989E+02  0.12000000000E+02  0.51109989000E-03 0.  1.
     -623   -1    0    0    0    0  0.00000000000E+00  0.00000000000E+00  0.42561509872E-11  0.25126700000E+02  0.25126700000E+02 0.  1.
      622    2    1    2    0    0  0.13715340076E+00 -0.46830114111E-01  0.82052273457E+01  0.82067794232E+01  0.66847524633E-01 0.  0.
       11    1    1    2    0    0 -0.13450073281E+00  0.49223215438E-01  0.37905150109E+01  0.37932199621E+01  0.51109989000E-03 0.  1.
     -623    1    1    2    0    0 -0.26526679464E-02 -0.23931013267E-02  0.42576325632E-02  0.25126700615E+02  0.25126700000E+02 0.  1.
     -611    1    3    3    0    0  0.10208104690E+00 -0.89686638165E-02  0.44911176200E+01  0.44922976809E+01  0.10000000000E-01 0. -1.
      611    1    3    3    0    0  0.35072353854E-01 -0.37861450295E-01  0.37141097257E+01  0.37144817423E+01  0.10000000000E-01 0.  1.
</event>
<event>
 7   0  0.6206631E-02  0.9118800E+02  0.7818608E-02  0.1180000E+00
       11   -1    0    0    0    0  0.00000000000E+00  0.00000000000E+00  0.11999999989E+02  0.12000000000E+02  0.51109989000E-03 0.  1.
     -623   -1    0    0    0    0  0.00000000000E+00  0.00000000000E+00  0.42561509872E-11  0.25126700000E+02  0.25126700000E+02 0.  1.
      622    2    1    2    0    0 -0.75590863610E-01  0.43385902126E-01  0.11571540771E+02  0.11572430984E+02  0.11404720993E+00 0.  0.
       11    1    1    2    0    0  0.59218695394E-01 -0.42073402679E-01  0.42134608736E+00  0.42756264062E+00  0.51109989000E-03 0.  1.
     -623    1    1    2    0    0  0.16372168217E-01 -0.13124994470E-02  0.71131311369E-02  0.25126706375E+02  0.25126700000E+02 0.  1.
     -611    1    3    3    0    0  0.35807819435E-02 -0.31197936936E-01  0.20690140764E+01  0.20692765358E+01  0.10000000000E-01 0. -1.
      611    1    3    3    0    0 -0.79171645554E-01  0.74583839062E-01  0.95025266943E+01  0.95031544486E+01  0.10000000000E-01 0.  1.
</event>
<event>
 7   0  0.6206631E-02  0.9118800E+02  0.7818608E-02  0.1180000E+00
       11   -1    0    0    0    0  0.00000000000E+00  0.00000000000E+00  0.11999999989E+02  0.12000000000E+02  0.51109989000E-03 0.  1.
     -623   -1    0    0    0    0  0.00000000000E+00  0.00000000000E+00  0.42561509872E-11  0.25126700000E+02  0.25126700000E+02 0.  1.
      622    2    1    2    0    0 -0.86578817420E-03 -0.52923486525E-02  0.11892257201E+02  0.11892604000E+02  0.90663157847E-01 0.  0.
       11    1    1    2    0    0  0.19001753118E-03  0.54347872161E-02  0.10725699800E+00  0.10739598625E+00  0.51109989000E-03 0.  1.
     -623    1    1    2    0    0  0.67577064302E-03 -0.14243856362E-03  0.48579058093E-03  0.25126700014E+02  0.25126700000E+02 0.  1.
     -611    1    3    3    0    0  0.41086890287E-01  0.95408366652E-02  0.46029051384E+01  0.46031092615E+01  0.10000000000E-01 0.  1.
      611    1    3    3    0    0 -0.41952678461E-01 -0.14833185318E-01  0.72893520621E+01  0.72894947380E+01  0.10000000000E-01 0.  1.
</event>
<event>
 7   0  0.6206631E-02  0.9118800E+02  0.7818608E-02  0.1180000E+00
       11   -1    0    0    0    0  0.00000000000E+00  0.00000000000E+00  0.11999999989E+02  0.12000000000E+02  0.51109989000E-03 0.  1.
     -623   -1    0    0    0    0  0.00000000000E+00  0.00000000000E+00  0.42561509872E-11  0.25126700000E+02  0.25126700000E+02 0. -1.
      622    2    1    2    0    0  0.33999481719E-03  0.28540238315E-02  0.11943566358E+02  0.11943843048E+02  0.81247400863E-01 0.  0.
       11    1    1    2    0    0  0.37549665558E-03 -0.10567526698E-02  0.56143350340E-01  0.56156876110E-01  0.51109989000E-03 0.  1.
     -623    1    1    2    0    0 -0.71549147277E-03 -0.17972711617E-02  0.29028077584E-03  0.25126700076E+02  0.25126700000E+02 0. -1.
     -611    1    3    3    0    0 -0.18142412376E-01  0.22064770828E-01  0.10194815453E+02  0.10194860378E+02  0.10000000000E-01 0.  1.
      611    1    3    3    0    0  0.18482407193E-01 -0.19210746997E-01  0.17487509052E+01  0.17489826702E+01  0.10000000000E-01 0. -1.
</event>
<event>
 7   0  0.6206631E-02  0.9118800E+02  0.7818608E-02  0.1180000E+00
       11   -1    0    0    0    0  0.00000000000E+00  0.00000000000E+00  0.11999999989E+02  0.12000000000E+02  0.51109989000E-03 0. -1.
     -623   -1    0    0    0    0  0.00000000000E+00  0.00000000000E+00  0.42561509872E-11  0.25126700000E+02  0.25126700000E+02 0.  1.
      622    2    1    2    0    0 -0.88051749943E-02  0.19218286517E-01  0.99936105472E+01  0.99941176406E+01  0.98431557926E-01 0.  0.
       11    1    1    2    0    0  0.11177513846E-01 -0.12113961204E-01  0.20058134481E+01  0.20058812365E+01  0.51109989000E-03 0. -1.
     -623    1    1    2    0    0 -0.23723388518E-02 -0.71043253131E-02  0.57599379554E-03  0.25126701123E+02  0.25126700000E+02 0.  1.
     -611    1    3    3    0    0 -0.36625854316E-01  0.18209166221E-01  0.19582876889E+01  0.19587403349E+01  0.10000000000E-01 0.  1.
      611    1    3    3    0    0  0.27820679321E-01  0.10091202959E-02  0.80353228582E+01  0.80353773057E+01  0.10000000000E-01 0. -1.
</event>
<event>
 7   0  0.6206631E-02  0.9118800E+02  0.7818608E-02  0.1180000E+00
       11   -1    0    0    0    0  0.00000000000E+00  0.00000000000E+00  0.11999999989E+02  0.12000000000E+02  0.51109989000E-03 0.  1.
     -623   -1    0    0    0    0  0.00000000000E+00  0.00000000000E+00  0.42561509872E-11  0.25126700000E+02  0.25126700000E+02 0. -1.
      622    2    1    2    0    0  0.67574927805E-01 -0.88742042597E-01  0.11417591694E+02  0.11418767927E+02  0.12008062229E+00 0.  0.
       11    1    1    2    0    0 -0.78461042416E-01  0.68669892058E-01  0.57179026203E+00  0.58121945445E+00  0.51109989000E-03 0.  1.
     -623    1    1    2    0    0  0.10886114611E-01  0.20072150539E-01  0.10618033279E-01  0.25126712619E+02  0.25126700000E+02 0. -1.
     -611    1    3    3    0    0 -0.13679273759E-01 -0.12545667795E-01  0.59260071113E+01  0.59260446167E+01  0.10000000000E-01 0.  1.
      611    1    3    3    0    0  0.81254201564E-01 -0.76196374801E-01  0.54915845825E+01  0.54927233100E+01  0.10000000000E-01 0. -1.
</event>
<event>
 7   0  0.6206631E-02  0.9118800E+02  0.7818608E-02  0.1180000E+00
       11   -1    0    0    0    0  0.00000000000E+00  0.00000000000E+00  0.11999999989E+02  0.12000000000E+02  0.51109989000E-03 0. -1.
     -623   -1    0    0    0    0  0.00000000000E+00  0.00000000000E+00  0.42561509872E-11  0.25126700000E+02  0.25126700000E+02 0. -1.
      622    2    1    2    0    0  0.37268475578E-01  0.21758123317E-01  0.11773550983E+02  0.11774498819E+02  0.14302912864E+00 0.  0.
       11    1    1    2    0    0 -0.53351122785E-01 -0.18057555740E-01  0.21834621734E+00  0.22549445552E+00  0.51109989000E-03 0. -1.
     -623    1    1    2    0    0  0.16082647207E-01 -0.37005675767E-02  0.81027891278E-02  0.25126706726E+02  0.25126700000E+02 0. -1.
     -611    1    3    3    0    0  0.72812957417E-01  0.31593345680E-01  0.10645937905E+02  0.10646238478E+02  0.10000000000E-01 0. -1.
      611    1    3    3    0    0 -0.35544481838E-01 -0.98352223633E-02  0.11276130778E+01  0.11282603401E+01  0.10000000000E-01 0.  1.
</event>
<event>
 7   0  0.6206631E-02  0.9118800E+02  0.7818608E-02  0.1180000E+00
       11   -1    0    0    0    0  0.00000000000E+00  0.00000000000E+00  0.11999999989E+02  0.12000000000E+02  0.51109989000E-03 0. -1.
     -623   -1    0    0    0    0  0.00000000000E+00  0.00000000000E+00  0.42561509872E-11  0.25126700000E+02  0.25126700000E+02 0.  1.
      622    2    1    2    0    0 -0.78117357049E-03 -0.87801277960E-03  0.11997647174E+02  0.11997903043E+02  0.78347532400E-01 0.  0.
       11    1    1    2    0    0 -0.37789838205E-03  0.74844715954E-03  0.18528056862E-02  0.20969245075E-02  0.51109989000E-03 0. -1.
     -623    1    1    2    0    0  0.11590719525E-02  0.12956562006E-03  0.50000896424E-03  0.25126700032E+02  0.25126700000E+02 0.  1.
     -611    1    3    3    0    0 -0.15851307321E-01  0.31031746647E-01  0.81617386326E+01  0.81618191441E+01  0.10000000000E-01 0. -1.
      611    1    3    3    0    0  0.15070133751E-01 -0.31909759427E-01  0.38359085418E+01  0.38360838993E+01  0.10000000000E-01 0.  1.
</event>
<event>
 7   0  0.6206631E-02  0.9118800E+02  0.7818608E-02  0.1180000E+00
       11   -1    0    0    0    0  0.00000000000E+00  0.00000000000E+00  0.11999999989E+02  0.12000000000E+02  0.51109989000E-03 0.  1.
     -623   -1    0    0    0    0  0.00000000000E+00  0.00000000000E+00  0.42561509872E-11  0.25126700000E+02  0.25126700000E+02 0. -1.
      622    2    1    2    0    0 -0.71141056259E-02  0.60300915811E-02  0.11010643165E+02  0.11010986769E+02  0.86485603756E-01 0.  0.
       11    1    1    2    0    0 -0.26143505588E-02 -0.34354755321E-02  0.98900165659E+00  0.98901121090E+00  0.51109989000E-03 0.  1.
     -623    1    1    2    0    0  0.97284561847E-02 -0.25946160489E-02  0.35516775853E-03  0.25126702020E+02  0.25126700000E+02 0. -1.
     -611    1    3    3    0    0  0.14498543927E-01  0.23258733715E-01  0.95666592810E+01  0.95667037675E+01  0.10000000000E-01 0.  1.
      611    1    3    3    0    0 -0.21612649553E-01 -0.17228642133E-01  0.14439838838E+01  0.14442830018E+01  0.10000000000E-01 0. -1.
</event>
<event>
 7   0  0.6206631E-02  0.9118800E+02  0.7818608E-02  0.1180000E+00
       11   -1    0    0    0    0  0.00000000000E+00  0.00000000000E+00  0.11999999989E+02  0.12000000000E+02  0.51109989000E-03 0. -1.
     -623   -1    0    0    0    0  0.00000000000E+00  0.00000000000E+00  0.42561509872E-11  0.25126700000E+02  0.25126700000E+02 0.  1.
      622    2    1    2    0    0  0.11992002294E-01 -0.96974523466E-01  0.11026163604E+02  0.11027191216E+02  0.11451827851E+00 0.  0.
       11    1    1    2    0    0  0.12771870750E-01 -0.28355339969E-01  0.97198642990E+00  0.97248394697E+00  0.51109989000E-03 0. -1.
     -623    1    1    2    0    0 -0.24763873043E-01  0.12532986344E+00  0.18499552098E-02  0.25127024837E+02  0.25126700000E+02 0.  1.
     -611    1    3    3    0    0  0.27134526622E-01 -0.10249948173E+00  0.10663537418E+02  0.10664069237E+02  0.10000000000E-01 0. -1.
      611    1    3    3    0    0 -0.15142524328E-01  0.55249582665E-02  0.36262618587E+00  0.36312197935E+00  0.10000000000E-01 0.  1.
</event>
<event>
 7   0  0.6206631E-02  0.9118800E+02  0.7818608E-02  0.1180000E+00
       11   -1    0    0    0    0  0.00000000000E+00  0.00000000000E+00  0.11999999989E+02  0.12000000000E+02  0.51109989000E-03 0. -1.
     -623   -1    0    0    0    0  0.00000000000E+00  0.00000000000E+00  0.42561509872E-11  0.25126700000E+02  0.25126700000E+02 0. -1.
      622    2    1    2    0    0  0.69721558469E-01 -0.27763419312E-01  0.10464063448E+02  0.10464864376E+02  0.10550191750E+00 0.  0.
       11    1    1    2    0    0 -0.10310695086E+00  0.12192978479E+00  0.15266067209E+01  0.15349352616E+01  0.51109989000E-03 0. -1.
     -623    1    1    2    0    0  0.33385392396E-01 -0.94166365481E-01  0.93298199392E-02  0.25126900362E+02  0.25126700000E+02 0. -1.
     -611    1    3    3    0    0 -0.19467286242E-01 -0.32946333299E-01  0.31129202418E+01  0.31131715128E+01  0.10000000000E-01 0.  1.
      611    1    3    3    0    0  0.89188844711E-01  0.51829139872E-02  0.73511432065E+01  0.73516928632E+01  0.10000000000E-01 0. -1.
</event>
<event>
 7   0  0.6206631E-02  0.9118800E+02  0.7818608E-02  0.1180000E+00
       11   -1    0    0    0    0  0.00000000000E+00  0.00000000000E+00  0.11999999989E+02  0.12000000000E+02  0.51109989000E-03 0.  1.
     -623   -1    0    0    0    0  0.00000000000E+00  0.00000000000E+00  0.42561509872E-11  0.25126700000E+02  0.25126700000E+02 0. -1.
      622    2    1    2    0    0  0.48804807653E-02 -0.16574777496E-02  0.11234221605E+02  0.11234531742E+02  0.83317640542E-01 0.  0.
       11    1    1    2    0    0 -0.12277585056E-02  0.20687429702E-02  0.76546403639E+00  0.76546798713E+00  0.51109989000E-03 0.  1.
     -623    1    1    2    0    0 -0.36527222597E-02 -0.41126522062E-03  0.31434786104E-03  0.25126700271E+02  0.25126700000E+02 0. -1.
     -611    1    3    3    0    0 -0.21930490573E-01 -0.86983618130E-02  0.96620707036E+01  0.96621046822E+01  0.10000000000E-01 0.  1.
      611    1    3    3    0    0  0.26810971338E-01  0.70408840634E-02  0.15721509013E+01  0.15724270599E+01  0.10000000000E-01 0. -1.
</event>
<event>
 7   0  0.6206631E-02  0.9118800E+02  0.7818608E-02  0.1180000E+00
       11   -1    0    0    0    0  0.00000000000E+00  0.00000000000E+00  0.11999999989E+02  0.12000000000E+02  0.51109989000E-03 0.  1.
     -623   -1    0    0    0    0  0.00000000000E+00  0.00000000000E+00  0.42561509872E-11  0.25126700000E+02  0.25126700000E+02 0. -1.
      622    2    1    2    0    0  0.10031031925E-02 -0.49383887042E-02  0.11710553503E+02  0.11710745027E+02  0.66785854998E-01 0.  0.
       11    1    1    2    0    0 -0.10147053258E-02  0.46825529241E-02  0.28921483551E+00  0.28925497097E+00  0.51109989000E-03 0.  1.
     -623    1    1    2    0    0  0.11602133232E-04  0.25583578010E-03  0.23165110459E-03  0.25126700002E+02  0.25126700000E+02 0. -1.
     -611    1    3    3    0    0 -0.15201992138E-01  0.25154830483E-01  0.60262605211E+01  0.60263404927E+01  0.10000000000E-01 0.  1.
      611    1    3    3    0    0  0.16205095331E-01 -0.30093219187E-01  0.56842929814E+01  0.56844045339E+01  0.10000000000E-01 0. -1.
</event>
<event>
 7   0  0.6206631E-02  0.9118800E+02  0.7818608E-02  0.1180000E+00
       11   -1    0    0    0    0  0.00000000000E+00  0.00000000000E+00  0.11999999989E+02  0.12000000000E+02  0.51109989000E-03 0.  1.
     -623   -1    0    0    0    0  0.00000000000E+00  0.00000000000E+00  0.42561509872E-11  0.25126700000E+02  0.25126700000E+02 0.  1.
      622    2    1    2    0    0  0.41958447536E-02  0.11442706517E-01  0.11941556019E+02  0.11942471541E+02  0.14736964320E+00 0.  0.
       11    1    1    2    0    0  0.15902456253E-02  0.36573426592E-02  0.57382541621E-01  0.57523233067E-01  0.51109989000E-03 0.  1.
     -623    1    1    2    0    0 -0.57860903789E-02 -0.15100049176E-01  0.10614284076E-02  0.25126705226E+02  0.25126700000E+02 0.  1.
     -611    1    3    3    0    0  0.66701326600E-01  0.32917911810E-01  0.46107337922E+01  0.46113445716E+01  0.10000000000E-01 0. -1.
      611    1    3    3    0    0 -0.62505481846E-01 -0.21475205293E-01  0.73308222269E+01  0.73311269694E+01  0.10000000000E-01 0.  1.
</event>
<event>
 7   0  0.6206631E-02  0.9118800E+02  0.7818608E-02  0.1180000E+00
       11   -1    0    0    0    0  0.00000000000E+00  0.00000000000E+00  0.11999999989E+02  0.12000000000E+02  0.51109989000E-03 0. -1.
     -623   -1    0    0    0    0  0.00000000000E+00  0.00000000000E+00  0.42561509872E-11  0.25126700000E+02  0.25126700000E+02 0.  1.
      622    2    1    2    0    0  0.35450678154E-03  0.40005087644E-02  0.11737626822E+02  0.11737927656E+02  0.83941060287E-01 0.  0.
       11    1    1    2    0    0 -0.14073574368E-02 -0.30588792294E-02  0.26205017292E+00  0.26207230252E+00  0.51109989000E-03 0. -1.
     -623    1    1    2    0    0  0.10528506553E-02 -0.94162953503E-03  0.32299391726E-03  0.25126700042E+02  0.25126700000E+02 0.  1.
     -611    1    3    3    0    0 -0.86513885397E-03  0.37314191804E-01  0.32535639016E+01  0.32537933492E+01  0.10000000000E-01 0.  1.
      611    1    3    3    0    0  0.12196456355E-02 -0.33313683039E-01  0.84840629207E+01  0.84841343065E+01  0.10000000000E-01 0. -1.
</event>
<event>
 7   0  0.6206631E-02  0.9118800E+02  0.7818608E-02  0.1180000E+00
       11   -1    0    0    0    0  0.00000000000E+00  0.00000000000E+00  0.11999999989E+02  0.12000000000E+02  0.51109989000E-03 0. -1.
     -623   -1    0    0    0    0  0.00000000000E+00  0.00000000000E+00  0.42561509872E-11  0.25126700000E+02  0.25126700000E+02 0.  1.
      622    2    1    2    0    0  0.41726676184E-03 -0.23465325789E-02  0.11985217491E+02  0.11985418120E+02  0.69307475434E-01 0.  0.
       11    1    1    2    0    0  0.90400039341E-04  0.26277609060E-02  0.14333749725E-01  0.14581869012E-01  0.51109989000E-03 0. -1.
     -623    1    1    2    0    0 -0.50766680118E-03 -0.28122832707E-03  0.44874819217E-03  0.25126700011E+02  0.25126700000E+02 0.  1.
     -611    1    3    3    0    0  0.26255994588E-02 -0.15871971768E-01  0.95632897711E+00  0.95651655800E+00  0.10000000000E-01 0.  1.
      611    1    3    3    0    0 -0.22083326969E-02  0.13525439189E-01  0.11028888514E+02  0.11028901562E+02  0.10000000000E-01 0. -1.
</event>
<event>
 7   0  0.6206631E-02  0.9118800E+02  0.7818608E-02  0.1180000E+00
       11   -1    0    0    0    0  0.00000000000E+00  0.00000000000E+00  0.11999999989E+02  0.12000000000E+02  0.51109989000E-03 0. -1.
     -623   -1    0    0    0    0  0.00000000000E+00  0.00000000000E+00  0.42561509872E-11  0.25126700000E+02  0.25126700000E+02 0. -1.
      622    2    1    2    0    0 -0.13260519947E-01 -0.75726636032E-02  0.11901830654E+02  0.11902143846E+02  0.84982469753E-01 0.  0.
       11    1    1    2    0    0  0.98544900003E-02  0.17709160854E-01  0.95730725605E-01  0.97853760271E-01  0.51109989000E-03 0. -1.
     -623    1    1    2    0    0  0.34060299464E-02 -0.10136497251E-01  0.24386092645E-02  0.25126702394E+02  0.25126700000E+02 0. -1.
     -611    1    3    3    0    0 -0.38196568616E-01 -0.29233791728E-01  0.83831781886E+01  0.83833221419E+01  0.10000000000E-01 0. -1.
      611    1    3    3    0    0  0.24936048669E-01  0.21661128124E-01  0.35186524656E+01  0.35188217041E+01  0.10000000000E-01 0.  1.
</event>
<event>
 7   0  0.6206631E-02  0.9118800E+02  0.7818608E-02  0.1180000E+00
       11   -1    0    0    0    0  0.00000000000E+00  0.00000000000E+00  0.11999999989E+02  0.12000000000E+02  0.51109989000E-03 0.  1.
     -623   -1    0    0    0    0  0.00000000000E+00  0.00000000000E+00  0.42561509872E-11  0.25126700000E+02  0.25126700000E+02 0.  1.
      622    2    1    2    0    0  0.10023630231E-01  0.51137662948E-01  0.98696870386E+01  0.98701898163E+01  0.84907215616E-01 0.  0.
       11    1    1    2    0    0 -0.75859937576E-03 -0.45948419727E-01  0.21293120205E+01  0.21298079197E+01  0.51109989000E-03 0.  1.
     -623    1    1    2    0    0 -0.92650308552E-02 -0.51892432209E-02  0.10009298726E-02  0.25126702264E+02  0.25126700000E+02 0.  1.
     -611    1    3    3    0    0  0.28189034509E-01  0.61005370673E-01  0.51667282328E+01  0.51671749446E+01  0.10000000000E-01 0.  1.
      611    1    3    3    0    0 -0.18165404278E-01 -0.98677077247E-02  0.47029588059E+01  0.47030148717E+01  0.10000000000E-01 0. -1.
</event>
<event>
 7   0  0.6206631E-02  0.9118800E+02  0.7818608E-02  0.1180000E+00
       11   -1    0    0    0    0  0.00000000000E+00  0.00000000000E+00  0.11999999989E+02  0.12000000000E+02  0.51109989000E-03 0. -1.
     -623   -1    0    0    0    0  0.00000000000E+00  0.00000000000E+00  0.42561509872E-11  0.25126700000E+02  0.25126700000E+02 0.  1.
      622    2    1    2    0    0 -0.95249187895E-02  0.92611542346E-02  0.11557234016E+02  0.11557565647E+02  0.86539454095E-01 0.  0.
       11    1    1    2    0    0  0.22423905062E-01  0.95075985027E-02  0.44175278103E+00  0.44242401237E+00  0.51109989000E-03 0. -1.
     -623    1    1    2    0    0 -0.12898986273E-01 -0.18768752737E-01  0.10131919713E-02  0.25126710341E+02  0.25126700000E+02 0.  1.
     -611    1    3    3    0    0 -0.43407100322E-02 -0.30474268612E-01  0.83890946603E+01  0.83891570937E+01  0.10000000000E-01 0. -1.
      611    1    3    3    0    0 -0.51842087573E-02  0.39735422847E-01  0.31681393558E+01  0.31684085529E+01  0.10000000000E-01 0. -1.
</event>
<event>
 7   0  0.6206631E-02  0.9118800E+02  0.7818608E-02  0.1180000E+00
       11   -1    0    0    0    0  0.00000000000E+00  0.00000000000E+00  0.11999999989E+02  0.12000000000E+02  0.51109989000E-03 0.  1.
     -623   -1    0    0    0    0  0.00000000000E+00  0.00000000000E+00  0.42561509872E-11  0.25126700000E+02  0.25126700000E+02 0. -1.
      622    2    1    2    0    0 -0.18405917868E-01 -0.13254601081E-01  0.11942523332E+02  0.11943040781E+02  0.10883510242E+00 0.  0.
       11    1    1    2    0    0  0.14000235564E-01  0.88831463331E-02  0.54489145944E-01  0.56958275373E-01  0.51109989000E-03 0.  1.
     -623    1    1    2    0    0  0.44056823033E-02  0.43714547476E-02  0.29875108460E-02  0.25126700944E+02  0.25126700000E+02 0. -1.
     -611    1    3    3    0    0  0.29997101665E-01  0.28925761175E-01  0.62427635772E+01  0.62429106678E+01  0.10000000000E-01 0.  1.
      611    1    3    3    0    0 -0.48403019533E-01 -0.42180362255E-01  0.56997597552E+01  0.57001301127E+01  0.10000000000E-01 0. -1.
</event>
<event>
 7   0  0.6206631E-02  0.9118800E+02  0.7818608E-02  0.1180000E+00
       11   -1    0    0    0    0  0.00000000000E+00  0.00000000000E+00  0.11999999989E+02  0.12000000000E+02  0.51109989000E-03 0. -1.
     -623   -1    0    0    0    0  0.00000000000E+00  0.00000000000E+00  0.42561509872E-11  0.25126700000E+02  0.25126700000E+02 0.  1.
      622    2    1    2    0    0  0.47171674006E-02  0.23138875504E-02  0.11979414471E+02  0.11980150130E+02  0.13265916546E+00 0.  0.
       11    1    1    2    0    0 -0.30445650104E-02  0.12368936911E-02  0.19568951031E-01  0.19849542808E-01  0.51109989000E-03 0. -1.
     -623    1    1    2    0    0 -0.16726023902E-02 -0.35507812415E-02  0.10165666271E-02  0.25126700327E+02  0.25126700000E+02 0.  1.
     -611    1    3    3    0    0 -0.48571237721E-01  0.22820832712E-02  0.20992078253E+01  0.20997947202E+01  0.10000000000E-01 0.  1.
      611    1    3    3    0    0  0.53288405122E-01  0.31804279227E-04  0.98802066461E+01  0.98803554099E+01  0.10000000000E-01 0. -1.
</event>
<event>
 7   0  0.6206631E-02  0.9118800E+02  0.7818608E-02  0.1180000E+00
       11   -1    0    0    0    0  0.00000000000E+00  0.00000000000E+00  0.11999999989E+02  0.12000000000E+02  0.51109989000E-03 0. -1.
     -623   -1    0    0    0    0  0.00000000000E+00  0.00000000000E+00  0.42561509872E-11  0.25126700000E+02  0.25126700000E+02 0.  1.
      622    2    1    2    0    0 -0.15083271298E-02 -0.50989073871E-01  0.58172286178E+01  0.58181773567E+01  0.91852061380E-01 0.  0.
       11    1    1    2    0    0 -0.83828828809E-01  0.78159447049E-01  0.61806003221E+01  0.61816629458E+01  0.51109989000E-03 0. -1.
     -623    1    1    2    0    0  0.85337155939E-01 -0.27170373178E-01  0.21710492045E-02  0.25126859698E+02  0.25126700000E+02 0.  1.
     -611    1    3    3    0    0 -0.28094490630E-01  0.14209034488E-01  0.15062322322E+01  0.15065944160E+01  0.10000000000E-01 0.  1.
      611    1    3    3    0    0  0.26586163501E-01 -0.65198108360E-01  0.43109963856E+01  0.43115829407E+01  0.10000000000E-01 0. -1.
</event>
<event>
 7   0  0.6206631E-02  0.9118800E+02  0.7818608E-02  0.1180000E+00
       11   -1    0    0    0    0  0.00000000000E+00  0.00000000000E+00  0.11999999989E+02  0.12000000000E+02  0.51109989000E-03 0. -1.
     -623   -1    0    0    0    0  0.00000000000E+00  0.00000000000E+00  0.42561509872E-11  0.25126700000E+02  0.25126700000E+02 0.  1.
      622    2    1    2    0    0 -0.56685615452E-01  0.27056366909E-02  0.10174613635E+02  0.10175406453E+02  0.11363661087E+00 0.  0.
       11    1    1    2    0    0  0.65730044478E-01  0.27790936949E-01  0.18231771020E+01  0.18245733148E+01  0.51109989000E-03 0. -1.
     -623    1    1    2    0    0 -0.90444290259E-02 -0.30496573640E-01  0.22092517665E-02  0.25126720232E+02  0.25126700000E+02 0.  1.
     -611    1    3    3    0    0 -0.84318511553E-01  0.18350280560E-01  0.86125634547E+01  0.86130015445E+01  0.10000000000E-01 0. -1.
      611    1    3    3    0    0  0.27632896101E-01 -0.15644643869E-01  0.15620501807E+01  0.15624049088E+01  0.10000000000E-01 0. -1.
</event>
<event>
 7   0  0.6206631E-02  0.9118800E+02  0.7818608E-02  0.1180000E+00
       11   -1    0    0    0    0  0.00000000000E+00  0.00000000000E+00  0.11999999989E+02  0.12000000000E+02  0.51109989000E-03 0.  1.
     -623   -1    0    0    0    0  0.00000000000E+00  0.00000000000E+00  0.42561509872E-11  0.25126700000E+02  0.25126700000E+02 0. -1.
      622    2    1    2    0    0 -0.12182943366E-02  0.66757735823E-03  0.11992349361E+02  0.11992971125E+02  0.12211167939E+00 0.  0.
       11    1    1    2    0    0 -0.47041396173E-03  0.11994718144E-02  0.68907119207E-02  0.70287378549E-02  0.51109989000E-03 0.  1.
     -623    1    1    2    0    0  0.16887082983E-02 -0.18670491726E-02  0.75991596374E-03  0.25126700138E+02  0.25126700000E+02 0. -1.
     -611    1    3    3    0    0 -0.42821857129E-02 -0.52637531559E-01  0.87636363373E+01  0.87638011673E+01  0.10000000000E-01 0.  1.
      611    1    3    3    0    0  0.30638913763E-02  0.53305108917E-01  0.32287130240E+01  0.32291699573E+01  0.10000000000E-01 0. -1.
</event>
<event>
 7   0  0.6206631E-02  0.9118800E+02  0.7818608E-02  0.1180000E+00
       11   -1    0    0    0    0  0.00000000000E+00  0.00000000000E+00  0.11999999989E+02  0.12000000000E+02  0.51109989000E-03 0. -1.
     -623   -1    0    0    0    0  0.00000000000E+00  0.00000000000E+00  0.42561509872E-11  0.25126700000E+02  0.25126700000E+02 0.  1.
      622    2    1    2    0    0  0.14591708518E-01 -0.19145235357E-01  0.11239533331E+02  0.11239728869E+02  0.61774541220E-01 0.  0.
       11    1    1    2    0    0 -0.27668074591E-01  0.23019053161E-01  0.75941482165E+00  0.76026740804E+00  0.51109989000E-03 0. -1.
     -623    1    1    2    0    0  0.13076366073E-01 -0.38738178044E-02  0.10518368094E-02  0.25126703723E+02  0.25126700000E+02 0.  1.
     -611    1    3    3    0    0  0.61198151055E-02 -0.16823537393E-01  0.11255197155E+01  0.11257064953E+01  0.10000000000E-01 0. -1.
      611    1    3    3    0    0  0.84718934130E-02 -0.23216979640E-02  0.10114013615E+02  0.10114022373E+02  0.10000000000E-01 0. -1.
</event>
<event>
 7   0  0.6206631E-02  0.9118800E+02  0.7818608E-02  0.1180000E+00
       11   -1    0    0    0    0  0.00000000000E+00  0.00000000000E+00  0.11999999989E+02  0.12000000000E+02  0.51109989000E-03 0.  1.
     -623   -1    0    0    0    0  0.00000000000E+00  0.00000000000E+00  0.42561509872E-11  0.25126700000E+02  0.25126700000E+02 0.  1.
      622    2    1    2    0    0  0.52924385698E-02  0.14104549107E-01  0.11858088964E+02  0.11859020058E+02  0.14783741723E+00 0.  0.
       11    1    1    2    0    0 -0.82332133257E-02 -0.14751129527E-01  0.13996295588E+00  0.14097968600E+00  0.51109989000E-03 0.  1.
     -623    1    1    2    0    0  0.29407747559E-02  0.64658041946E-03  0.19480688435E-02  0.25126700256E+02  0.25126700000E+02 0.  1.
     -611    1    3    3    0    0 -0.89725537735E-02  0.77073848665E-01  0.79505829194E+01  0.79509678432E+01  0.10000000000E-01 0. -1.
      611    1    3    3    0    0  0.14264992343E-01 -0.62969299557E-01  0.39075060450E+01  0.39080522149E+01  0.10000000000E-01 0.  1.
</event>
<event>
 7   0  0.6206631E-02  0.9118800E+02  0.7818608E-02  0.1180000E+00
       11   -1    0    0    0    0  0.00000000000E+00  0.00000000000E+00  0.11999999989E+02  0.12000000000E+02  0.51109989000E-03 0.  1.
     -623   -1    0    0    0    0  0.00000000000E+00  0.00000000000E+00  0.42561509872E-11  0.25126700000E+02  0.25126700000E+02 0. -1.
      622    2    1    2    0    0  0.31862904753E-02  0.76884457827E-02  0.11903104862E+02  0.11904061652E+02  0.15069571381E+00 0.  0.
       11    1    1    2    0    0 -0.29852622843E-02 -0.88491653588E-02  0.95481269751E-01  0.95938280237E-01  0.51109989000E-03 0.  1.
     -623    1    1    2    0    0 -0.20102819101E-03  0.11607195761E-02  0.14138571641E-02  0.25126700067E+02  0.25126700000E+02 0. -1.
     -611    1    3    3    0    0 -0.16672053791E-01  0.76302269086E-01  0.60460507024E+01  0.60465634116E+01  0.10000000000E-01 0. -1.
      611    1    3    3    0    0  0.19858344266E-01 -0.68613823303E-01  0.58570541598E+01  0.58574982408E+01  0.10000000000E-01 0.  1.
</event>
<event>
 7   0  0.6206631E-02  0.9118800E+02  0.7818608E-02  0.1180000E+00
       11   -1    0    0    0    0  0.00000000000E+00  0.00000000000E+00  0.11999999989E+02  0.12000000000E+02  0.51109989000E-03 0. -1.
     -623   -1    0    0    0    0  0.00000000000E+00  0.00000000000E+00  0.42561509872E-11  0.25126700000E+02  0.25126700000E+02 0. -1.
      622    2    1    2    0    0 -0.85920281389E-01  0.16852328685E-01  0.73889668540E+01  0.73898932811E+01  0.77622428891E-01 0.  0.
       11    1    1    2    0    0  0.80309406016E-01 -0.42538800342E-01  0.46091970123E+01  0.46100928960E+01  0.51109989000E-03 0. -1.
     -623    1    1    2    0    0  0.56108753737E-02  0.25686471656E-01  0.18361228576E-02  0.25126713823E+02  0.25126700000E+02 0. -1.
     -611    1    3    3    0    0 -0.21016902352E-02  0.22024636635E-01  0.76176901431E+00  0.76215584554E+00  0.10000000000E-01 0.  1.
      611    1    3    3    0    0 -0.83818591154E-01 -0.51723079491E-02  0.66271978397E+01  0.66277374356E+01  0.10000000000E-01 0. -1.
</event>
<event>
 7   0  0.6206631E-02  0.9118800E+02  0.7818608E-02  0.1180000E+00
       11   -1    0    0    0    0  0.00000000000E+00  0.00000000000E+00  0.11999999989E+02  0.12000000000E+02  0.51109989000E-03 0. -1.
     -623   -1    0    0    0    0  0.00000000000E+00  0.00000000000E+00  0.42561509872E-11  0.25126700000E+02  0.25126700000E+02 0. -1.
      622    2    1    2    0    0 -0.22936515520E-03 -0.13528588155E-02  0.11993656295E+02  0.11994060048E+02  0.98403443113E-01 0.  0.
       11    1    1    2    0    0 -0.88993003037E-03  0.17048320980E-02  0.55966880272E-02  0.59399131236E-02  0.51109989000E-03 0. -1.
     -623    1    1    2    0    0  0.11192951856E-02 -0.35197328252E-03  0.74700604986E-03  0.25126700038E+02  0.25126700000E+02 0. -1.
     -611    1    3    3    0    0 -0.35249896121E-02 -0.41596296327E-02  0.11844789517E+02  0.11844794993E+02  0.10000000000E-01 0. -1.
      611    1    3    3    0    0  0.32956244569E-02  0.28067708172E-02  0.14886677850E+00  0.14926505567E+00  0.10000000000E-01 0. -1.
</event>
<event>
 7   0  0.6206631E-02  0.9118800E+02  0.7818608E-02  0.1180000E+00
       11   -1    0    0    0    0  0.00000000000E+00  0.00000000000E+00  0.11999999989E+02  0.12000000000E+02  0.51109989000E-03 0.  1.
     -623   -1    0    0    0    0  0.00000000000E+00  0.00000000000E+00  0.42561509872E-11  0.25126700000E+02  0.25126700000E+02 0. -1.
      622    2    1    2    0    0 -0.22147198191E-03  0.17615483262E-02  0.99329365971E+01  0.99334555413E+01  0.10152042699E+00 0.  0.
       11    1    1    2    0    0  0.83938056264E-02  0.12551645161E-01  0.20664838177E+01  0.20665390463E+01  0.51109989000E-03 0.  1.
     -623    1    1    2    0    0 -0.81723336445E-02 -0.14313193487E-01  0.57957429173E-03  0.25126705412E+02  0.25126700000E+02 0. -1.
     -611    1    3    3    0    0  0.37643419442E-02  0.35736226970E-01  0.84795749286E+01  0.84796569635E+01  0.10000000000E-01 0.  1.
      611    1    3    3    0    0 -0.39858139261E-02 -0.33974678643E-01  0.14533616685E+01  0.14537985778E+01  0.10000000000E-01 0. -1.
</event>
<event>
 7   0  0.6206631E-02  0.9118800E+02  0.7818608E-02  0.1180000E+00
       11   -1    0    0    0    0  0.00000000000E+00  0.00000000000E+00  0.11999999989E+02  0.12000000000E+02  0.51109989000E-03 0. -1.
     -623   -1    0    0    0    0  0.00000000000E+00  0.00000000000E+00  0.42561509872E-11  0.25126700000E+02  0.25126700000E+02 0.  1.
      622    2    1    2    0    0  0.28284063642E-02 -0.70640296043E-02  0.11916383062E+02  0.11916810070E+02  0.10059352739E+00 0.  0.
       11    1    1    2    0    0 -0.23511795341E-01 -0.23266364789E-01  0.76298993294E-01  0.83162045738E-01  0.51109989000E-03 0. -1.
     -623    1    1    2    0    0  0.20683388977E-01  0.30330394393E-01  0.73179337310E-02  0.25126727884E+02  0.25126700000E+02 0.  1.
     -611    1    3    3    0    0 -0.10125952133E-01  0.21546681368E-01  0.88233029145E+00  0.88270807043E+00  0.10000000000E-01 0.  1.
      611    1    3    3    0    0  0.12954358497E-01 -0.28610710972E-01  0.11034052771E+02  0.11034101999E+02  0.10000000000E-01 0. -1.
</event>
<event>
 7   0  0.6206631E-02  0.9118800E+02  0.7818608E-02  0.1180000E+00
       11   -1    0    0    0    0  0.00000000000E+00  0.00000000000E+00  0.11999999989E+02  0.12000000000E+02  0.51109989000E-03 0. -1.
     -623   -1    0    0    0    0  0.00000000000E+00  0.00000000000E+00  0.42561509872E-11  0.25126700000E+02  0.25126700000E+02 0.  1.
      622    2    1    2    0    0  0.82197589839E-02  0.48059267543E-01  0.11313173979E+02  0.11313612548E+02  0.86868625409E-01 0.  0.
       11    1    1    2    0    0  0.33931414500E-02 -0.49205996049E-01  0.68461001694E+00  0.68638464433E+00  0.51109989000E-03 0. -1.
     -623    1    1    2    0    0 -0.11612900434E-01  0.11467285055E-02  0.22159933632E-02  0.25126702807E+02  0.25126700000E+02 0.  1.
     -611    1    3    3    0    0  0.58915412402E-02  0.19763582606E-02  0.20474011335E+00  0.20507835152E+00  0.10000000000E-01 0. -1.
      611    1    3    3    0    0  0.23282177437E-02  0.46082909283E-01  0.11108433865E+02  0.11108534197E+02  0.10000000000E-01 0. -1.
</event>
<event>
 7   0  0.6206631E-02  0.9118800E+02  0.7818608E-02  0.1180000E+00
       11   -1    0    0    0    0  0.00000000000E+00  0.00000000000E+00  0.11999999989E+02  0.12000000000E+02  0.51109989000E-03 0.  1.
     -623   -1    0    0    0    0  0.00000000000E+00  0.00000000000E+00  0.42561509872E-11  0.25126700000E+02  0.25126700000E+02 0.  1.
      622    2    1    2    0    0 -0.25426197169E-01 -0.28277913958E-01  0.79252592668E+01  0.79264213454E+01  0.13028725143E+00 0.  0.
       11    1    1    2    0    0  0.24246568572E-01  0.23257771751E-01  0.40734395034E+01  0.40735780917E+01  0.51109989000E-03 0.  1.
     -623    1    1    2    0    0  0.11796285967E-02  0.50201422068E-02  0.13012189529E-02  0.25126700563E+02  0.25126700000E+02 0.  1.
     -611    1    3    3    0    0  0.26484523819E-01  0.11221742301E-01  0.53407837565E+00  0.53494585599E+00  0.10000000000E-01 0.  1.
      611    1    3    3    0    0 -0.51910720988E-01 -0.39499656259E-01  0.73911808911E+01  0.73914754894E+01  0.10000000000E-01 0. -1.
</event>
<event>
 7   0  0.6206631E-02  0.9118800E+02  0.7818608E-02  0.1180000E+00
       11   -1    0    0    0    0  0.00000000000E+00  0.00000000000E+00  0.11999999989E+02  0.12000000000E+02  0.51109989000E-03 0. -1.
     -623   -1    0    0    0    0  0.00000000000E+00  0.00000000000E+00  0.42561509872E-11  0.25126700000E+02  0.25126700000E+02 0. -1.
      622    2    1    2    0    0  0.51102242683E-03  0.21572612545E-02  0.11974770816E+02  0.11975401484E+02  0.12288083707E+00 0.  0.
       11    1    1    2    0    0 -0.21652945162E-02 -0.16383582289E-02  0.24442780150E-01  0.24598443906E-01  0.51109989000E-03 0. -1.
     -623    1    1    2    0    0  0.16542720894E-02 -0.51890302552E-03  0.78639332110E-03  0.25126700072E+02  0.25126700000E+02 0. -1.
     -611    1    3    3    0    0  0.29513612430E-02  0.55980477197E-01  0.85749889720E+01  0.85751780386E+01  0.10000000000E-01 0. -1.
      611    1    3    3    0    0 -0.24403388162E-02 -0.53823215942E-01  0.33997818437E+01  0.34002234453E+01  0.10000000000E-01 0. -1.
</event>
<event>
 7   0  0.6206631E-02  0.9118800E+02  0.7818608E-02  0.1180000E+00
       11   -1    0    0    0    0  0.00000000000E+00  0.00000000000E+00  0.11999999989E+02  0.12000000000E+02  0.51109989000E-03 0. -1.
     -623   -1    0    0    0    0  0.00000000000E+00  0.00000000000E+00  0.42561509872E-11  0.25126700000E+02  0.25126700000E+02 0. -1.
      622    2    1    2    0    0  0.58476186113E-02  0.53254680411E-02  0.11984116163E+02  0.11984505547E+02  0.96283135917E-01 0.  0.
       11    1    1    2    0    0 -0.75982950230E-02  0.16237120668E-02  0.13394432409E-01  0.15493307293E-01  0.51109989000E-03 0. -1.
     -623    1    1    2    0    0  0.17506764117E-02 -0.69491801079E-02  0.24893932482E-02  0.25126701145E+02  0.25126700000E+02 0. -1.
     -611    1    3    3    0    0 -0.25493503447E-01 -0.25777951155E-01  0.25152689266E+01  0.25155500780E+01  0.10000000000E-01 0.  1.
      611    1    3    3    0    0  0.31341122058E-01  0.31103419196E-01  0.94688472369E+01  0.94689554695E+01  0.10000000000E-01 0. -1.
</event>
<event>
 7   0  0.6206631E-02  0.9118800E+02  0.7818608E-02  0.1180000E+00
       11   -1    0    0    0    0  0.00000000000E+00  0.00000000000E+00  0.11999999989E+02  0.12000000000E+02  0.51109989000E-03 0.  1.
     -623   -1    0    0    0    0  0.00000000000E+00  0.00000000000E+00  0.42561509872E-11  0.25126700000E+02  0.25126700000E+02 0. -1.
      622    2    1    2    0    0  0.96114420651E-02  0.47325249970E-03  0.94217253377E+01  0.94218068227E+01  0.37985019337E-01 0.  0.
       11    1    1    2    0    0 -0.10404461889E-01  0.51466587784E-03  0.25781720492E+01  0.25781931452E+01  0.51109989000E-03 0.  1.
     -623    1    1    2    0    0  0.79301982375E-03 -0.98791837754E-03  0.10260232749E-03  0.25126700032E+02  0.25126700000E+02 0. -1.
     -611    1    3    3    0    0 -0.49973120395E-02 -0.12815588999E-01  0.43125838255E+01  0.43126173566E+01  0.10000000000E-01 0. -1.
      611    1    3    3    0    0  0.14608754105E-01  0.13288841499E-01  0.51091415122E+01  0.51091894661E+01  0.10000000000E-01 0.  1.
</event>
<event>
 7   0  0.6206631E-02  0.9118800E+02  0.7818608E-02  0.1180000E+00
       11   -1    0    0    0    0  0.00000000000E+00  0.00000000000E+00  0.11999999989E+02  0.12000000000E+02  0.51109989000E-03 0. -1.
     -623   -1    0    0    0    0  0.00000000000E+00  0.00000000000E+00  0.42561509872E-11  0.25126700000E+02  0.25126700000E+02 0.  1.
      622    2    1    2    0    0 -0.27648134572E-01  0.49680289071E-01  0.80788014253E+01  0.80795553431E+01  0.94601907366E-01 0.  0.
       11    1    1    2    0    0  0.33291430740E-01 -0.18805572327E-01  0.39202385429E+01  0.39204250360E+01  0.51109989000E-03 0. -1.
     -623    1    1    2    0    0 -0.56432961680E-02 -0.30874716744E-01  0.96002087662E-03  0.25126719621E+02  0.25126700000E+02 0.  1.
     -611    1    3    3    0    0  0.28237779202E-01 -0.59149811637E-02  0.25538447597E+01  0.25540272935E+01  0.10000000000E-01 0. -1.
      611    1    3    3    0    0 -0.55885913774E-01  0.55595270235E-01  0.55249566657E+01  0.55255280496E+01  0.10000000000E-01 0.  1.
</event>
<event>
 7   0  0.6206631E-02  0.9118800E+02  0.7818608E-02  0.1180000E+00
       11   -1    0    0    0    0  0.00000000000E+00  0.00000000000E+00  0.11999999989E+02  0.12000000000E+02  0.51109989000E-03 0.  1.
     -623   -1    0    0    0    0  0.00000000000E+00  0.00000000000E+00  0.42561509872E-11  0.25126700000E+02  0.25126700000E+02 0.  1.
      622    2    1    2    0    0  0.50245604485E-03 -0.14624466972E-02  0.11947021391E+02  0.11947307434E+02  0.82658509140E-01 0.  0.
       11    1    1    2    0    0 -0.10223501199E-03 -0.64555028817E-03  0.52685939839E-01  0.52692472584E-01  0.51109989000E-03 0.  1.
     -623    1    1    2    0    0 -0.40022103286E-03  0.21079969854E-02  0.29265880277E-03  0.25126700093E+02  0.25126700000E+02 0.  1.
     -611    1    3    3    0    0 -0.69726676928E-02  0.50099363036E-02  0.11592163908E+02  0.11592171401E+02  0.10000000000E-01 0.  1.
      611    1    3    3    0    0  0.74751237377E-02 -0.64723830009E-02  0.35485748244E+00  0.35513603318E+00  0.10000000000E-01 0.  1.
</event>
<event>
 7   0  0.6206631E-02  0.9118800E+02  0.7818608E-02  0.1180000E+00
       11   -1    0    0    0    0  0.00000000000E+00  0.00000000000E+00  0.11999999989E+02  0.12000000000E+02  0.51109989000E-03 0. -1.
     -623   -1    0    0    0    0  0.00000000000E+00  0.00000000000E+00  0.42561509872E-11  0.25126700000E+02  0.25126700000E+02 0. -1.
      622    2    1    2    0    0  0.35670285417E-01  0.17624761617E+00  0.78810925543E+01  0.78843290311E+01  0.13670709278E+00 0.  0.
       11    1    1    2    0    0 -0.48243057225E-01 -0.10992692203E+00  0.41138285557E+01  0.41155797852E+01  0.51109989000E-03 0. -1.
     -623    1    1    2    0    0  0.12572771808E-01 -0.66320694148E-01  0.50788791008E-02  0.25126791184E+02  0.25126700000E+02 0. -1.
     -611    1    3    3    0    0  0.26606615299E-01  0.18229186488E+00  0.53274365491E+01  0.53306302086E+01  0.10000000000E-01 0.  1.
      611    1    3    3    0    0  0.90636701177E-02 -0.60442487079E-02  0.25536560052E+01  0.25536988224E+01  0.10000000000E-01 0. -1.
</event>
<event>
 7   0  0.6206631E-02  0.9118800E+02  0.7818608E-02  0.1180000E+00
       11   -1    0    0    0    0  0.00000000000E+00  0.00000000000E+00  0.11999999989E+02  0.12000000000E+02  0.51109989000E-03 0.  1.
     -623   -1    0    0    0    0  0.00000000000E+00  0.00000000000E+00  0.42561509872E-11  0.25126700000E+02  0.25126700000E+02 0.  1.
      622    2    1    2    0    0  0.55731641814E-01 -0.35940810520E-02  0.65407220061E+01  0.65415284384E+01  0.86203342474E-01 0.  0.
       11    1    1    2    0    0 -0.58428997480E-01  0.45678182285E-02  0.54581567085E+01  0.54584713729E+01  0.51109989000E-03 0.  1.
     -623    1    1    2    0    0  0.26973556659E-02 -0.97373717651E-03  0.11212744796E-02  0.25126700189E+02  0.25126700000E+02 0.  1.
     -611    1    3    3    0    0  0.57945557271E-01  0.23589546293E-01  0.29071301318E+01  0.29078204480E+01  0.10000000000E-01 0. -1.
      611    1    3    3    0    0 -0.22139154565E-02 -0.27183627345E-01  0.36335918743E+01  0.36337079905E+01  0.10000000000E-01 0.  1.
</event>
<event>
 7   0  0.6206631E-02  0.9118800E+02  0.7818608E-02  0.1180000E+00
       11   -1    0    0    0    0  0.00000000000E+00  0.00000000000E+00  0.11999999989E+02  0.12000000000E+02  0.51109989000E-03 0. -1.
     -623   -1    0    0    0    0  0.00000000000E+00  0.00000000000E+00  0.42561509872E-11  0.25126700000E+02  0.25126700000E+02 0. -1.
      622    2    1    2    0    0 -0.98878586551E-03 -0.89303118951E-03  0.11989044308E+02  0.11989231698E+02  0.67018681885E-01 0.  0.
       11    1    1    2    0    0  0.10448738579E-02 -0.56766131572E-03  0.10690190282E-01  0.10768258547E-01  0.51109989000E-03 0. -1.
     -623    1    1    2    0    0 -0.56087992438E-04  0.14606925052E-02  0.26549088217E-03  0.25126700044E+02  0.25126700000E+02 0. -1.
     -611    1    3    3    0    0 -0.16731860814E-01 -0.22356184100E-01  0.90796063211E+01  0.90796547677E+01  0.10000000000E-01 0.  1.
      611    1    3    3    0    0  0.15743074949E-01  0.21463152911E-01  0.29094379869E+01  0.29095769299E+01  0.10000000000E-01 0. -1.
</event>
<event>
 7   0  0.6206631E-02  0.9118800E+02  0.7818608E-02  0.1180000E+00
       11   -1    0    0    0    0  0.00000000000E+00  0.00000000000E+00  0.11999999989E+02  0.12000000000E+02  0.51109989000E-03 0. -1.
     -623   -1    0    0    0    0  0.00000000000E+00  0.00000000000E+00  0.42561509872E-11  0.25126700000E+02  0.25126700000E+02 0. -1.
      622    2    1    2    0    0 -0.55095963702E-02 -0.48329675760E-03  0.11980073187E+02  0.11980705920E+02  0.12300477989E+00 0.  0.
       11    1    1    2    0    0  0.27314937880E-02  0.40060294929E-02  0.18667466598E-01  0.19293648254E-01  0.51109989000E-03 0. -1.
     -623    1    1    2    0    0  0.27781025822E-02 -0.35227327353E-02  0.12593354146E-02  0.25126700432E+02  0.25126700000E+02 0. -1.
     -611    1    3    3    0    0 -0.52333832783E-01  0.25923883408E-01  0.39258067494E+01  0.39262538776E+01  0.10000000000E-01 0.  1.
      611    1    3    3    0    0  0.46824236413E-01 -0.26407180166E-01  0.80542664377E+01  0.80544520421E+01  0.10000000000E-01 0. -1.
</event>
<event>
 7   0  0.6206631E-02  0.9118800E+02  0.7818608E-02  0.1180000E+00
       11   -1    0    0    0    0  0.00000000000E+00  0.00000000000E+00  0.11999999989E+02  0.12000000000E+02  0.51109989000E-03 0. -1.
     -623   -1    0    0    0    0  0.00000000000E+00  0.00000000000E+00  0.42561509872E-11  0.25126700000E+02  0.25126700000E+02 0.  1.
      622    2    1    2    0    0 -0.35181191063E-01 -0.18480094934E-01  0.10810908064E+02  0.10811393772E+02  0.94461057009E-01 0.  0.
       11    1    1    2    0    0  0.34787504832E-01  0.99767431461E-02  0.11880535849E+01  0.11886047651E+01  0.51109989000E-03 0. -1.
     -623    1    1    2    0    0  0.39368623061E-03  0.85033517880E-02  0.10383405806E-02  0.25126701463E+02  0.25126700000E+02 0.  1.
     -611    1    3    3    0    0  0.29858630190E-01  0.52611945136E-02  0.39530231399E+01  0.39531520541E+01  0.10000000000E-01 0.  1.
      611    1    3    3    0    0 -0.65039821253E-01 -0.23741289448E-01  0.68578849238E+01  0.68582417175E+01  0.10000000000E-01 0. -1.
</event>
<event>
 7   0  0.6206631E-02  0.9118800E+02  0.7818608E-02  0.1180000E+00
       11   -1    0    0    0    0  0.00000000000E+00  0.00000000000E+00  0.11999999989E+02  0.12000000000E+02  0.51109989000E-03 0.  1.
     -623   -1    0    0    0    0  0.00000000000E+00  0.00000000000E+00  0.42561509872E-11  0.25126700000E+02  0.25126700000E+02 0. -1.
      622    2    1    2    0    0  0.15489704209E-02 -0.45517542085E-02  0.11858252996E+02  0.11858777262E+02  0.11140419740E+00 0.  0.
       11    1    1    2    0    0 -0.23997392283E-02  0.42335839569E-02  0.14113791804E+00  0.14122271458E+00  0.51109989000E-03 0.  1.
     -623    1    1    2    0    0  0.85076880740E-03  0.31817025167E-03  0.60907463247E-03  0.25126700024E+02  0.25126700000E+02 0. -1.
     -611    1    3    3    0    0  0.25933893015E-01  0.46353840628E-01  0.54629030990E+01  0.54631704636E+01  0.10000000000E-01 0.  1.
      611    1    3    3    0    0 -0.24384922595E-01 -0.50905594836E-01  0.63953498974E+01  0.63956067980E+01  0.10000000000E-01 0. -1.
</event>
<event>
 7   0  0.6206631E-02  0.9118800E+02  0.7818608E-02  0.1180000E+00
       11   -1    0    0    0    0  0.00000000000E+00  0.00000000000E+00  0.11999999989E+02  0.12000000000E+02  0.51109989000E-03 0. -1.
     -623   -1    0    0    0    0  0.00000000000E+00  0.00000000000E+00  0.42561509872E-11  0.25126700000E+02  0.25126700000E+02 0.  1.
      622    2    1    2    0    0 -0.97070723390E-03 -0.26650062847E-03  0.11971550877E+02  0.11971681593E+02  0.55935290404E-01 0.  0.
       11    1    1    2    0    0 -0.43480423225E-03  0.36079788401E-04  0.28310391758E-01  0.28318366145E-01  0.51109989000E-03 0. -1.
     -623    1    1    2    0    0  0.14055114662E-02  0.23042084007E-03  0.13872052490E-03  0.25126700041E+02  0.25126700000E+02 0.  1.
     -611    1    3    3    0    0  0.75068277494E-02 -0.22382669263E-02  0.11260342907E+02  0.11260350072E+02  0.10000000000E-01 0. -1.
      611    1    3    3    0    0 -0.84775349833E-02  0.19717662978E-02  0.71120796980E+00  0.71133152100E+00  0.10000000000E-01 0. -1.
</event>
<event>
 7   0  0.6206631E-02  0.9118800E+02  0.7818608E-02  0.1180000E+00
       11   -1    0    0    0    0  0.00000000000E+00  0.00000000000E+00  0.11999999989E+02  0.12000000000E+02  0.51109989000E-03 0.  1.
     -623   -1    0    0    0    0  0.00000000000E+00  0.00000000000E+00  0.42561509872E-11  0.25126700000E+02  0.25126700000E+02 0. -1.
      622    2    1    2    0    0 -0.28698606120E-01 -0.91285018622E-01  0.90598953477E+01  0.90607814710E+01  0.83069777872E-01 0.  0.
       11    1    1    2    0    0  0.71137008696E-01  0.11648371093E+00  0.29359988844E+01  0.29391697194E+01  0.51109989000E-03 0.  1.
     -623    1    1    2    0    0 -0.42438402576E-01 -0.25198692311E-01  0.41057569024E-02  0.25126748810E+02  0.25126700000E+02 0. -1.
     -611    1    3    3    0    0  0.87984770263E-02  0.10063544162E-01  0.17646105683E+01  0.17646895324E+01  0.10000000000E-01 0. -1.
      611    1    3    3    0    0 -0.37497083147E-01 -0.10134856278E+00  0.72952847795E+01  0.72960919386E+01  0.10000000000E-01 0.  1.
</event>
<event>
 7   0  0.6206631E-02  0.9118800E+02  0.7818608E-02  0.1180000E+00
       11   -1    0    0    0    0  0.00000000000E+00  0.00000000000E+00  0.11999999989E+02  0.12000000000E+02  0.51109989000E-03 0. -1.
     -623   -1    0    0    0    0  0.00000000000E+00  0.00000000000E+00  0.42561509872E-11  0.25126700000E+02  0.25126700000E+02 0.  1.
      622    2    1    2    0    0 -0.37437783096E-02  0.80471150931E-02  0.11756877824E+02  0.11757369105E+02  0.10711369380E+00 0.  0.
       11    1    1    2    0    0  0.46822845238E-02 -0.45294573598E-02  0.24254261236E+00  0.24263062421E+00  0.51109989000E-03 0. -1.
     -623    1    1    2    0    0 -0.93850621413E-03 -0.35176577333E-02  0.57955294942E-03  0.25126700270E+02  0.25126700000E+02 0.  1.
     -611    1    3    3    0    0 -0.34422166842E-01  0.35774284632E-01  0.91835095129E+01  0.91836491471E+01  0.10000000000E-01 0. -1.
      611    1    3    3    0    0  0.30678388532E-01 -0.27727169539E-01  0.25733683109E+01  0.25737199582E+01  0.10000000000E-01 0.  1.
</event>
<event>
 7   0  0.6206631E-02  0.9118800E+02  0.7818608E-02  0.1180000E+00
       11   -1    0    0    0    0  0.00000000000E+00  0.00000000000E+00  0.11999999989E+02  0.12000000000E+02  0.51109989000E-03 0. -1.
     -623   -1    0    0    0    0  0.00000000000E+00  0.00000000000E+00  0.42561509872E-11  0.25126700000E+02  0.25126700000E+02 0. -1.
      622    2    1    2    0    0  0.12937981987E-01 -0.24025346935E-01  0.11129421813E+02  0.11129920916E+02  0.10180909640E+00 0.  0.
       11    1    1    2    0    0 -0.13836653978E-01  0.26224834152E-01  0.86957341635E+00  0.87007895191E+00  0.51109989000E-03 0. -1.
     -623    1    1    2    0    0  0.89867199173E-03 -0.21994872174E-02  0.10047599342E-02  0.25126700132E+02  0.25126700000E+02 0. -1.
     -611    1    3    3    0    0 -0.36682701527E-01 -0.87481205426E-02  0.22242965619E+01  0.22246387000E+01  0.10000000000E-01 0.  1.
      611    1    3    3    0    0  0.49620683513E-01 -0.15277226392E-01  0.89051252509E+01  0.89052822156E+01  0.10000000000E-01 0. -1.
</event>
<event>
 7   0  0.6206631E-02  0.9118800E+02  0.7818608E-02  0.1180000E+00
       11   -1    0    0    0    0  0.00000000000E+00  0.00000000000E+00  0.11999999989E+02  0.12000000000E+02  0.51109989000E-03 0. -1.
     -623   -1    0    0    0    0  0.00000000000E+00  0.00000000000E+00  0.42561509872E-11  0.25126700000E+02  0.25126700000E+02 0. -1.
      622    2    1    2    0    0 -0.57163319893E-01 -0.14973769972E-01  0.11636671879E+02  0.11637343265E+02  0.11015440466E+00 0.  0.
       11    1    1    2    0    0  0.80677178145E-01  0.14651733957E-02  0.35354872110E+00  0.36264019802E+00  0.51109989000E-03 0. -1.
     -623    1    1    2    0    0 -0.23513858252E-01  0.13508596576E-01  0.97793887976E-02  0.25126716537E+02  0.25126700000E+02 0. -1.
     -611    1    3    3    0    0 -0.76211288510E-01  0.11367704877E-01  0.10082065860E+02  0.10082365268E+02  0.10000000000E-01 0. -1.
      611    1    3    3    0    0  0.19047968617E-01 -0.26341474848E-01  0.15546060189E+01  0.15549779974E+01  0.10000000000E-01 0.  1.
</event>
<event>
 7   0  0.6206631E-02  0.9118800E+02  0.7818608E-02  0.1180000E+00
       11   -1    0    0    0    0  0.00000000000E+00  0.00000000000E+00  0.11999999989E+02  0.12000000000E+02  0.51109989000E-03 0.  1.
     -623   -1    0    0    0    0  0.00000000000E+00  0.00000000000E+00  0.42561509872E-11  0.25126700000E+02  0.25126700000E+02 0. -1.
      622    2    1    2    0    0  0.77190484292E-01 -0.11308524693E-02  0.11596330555E+02  0.11597160296E+02  0.11526032853E+00 0.  0.
       11    1    1    2    0    0 -0.55459212486E-01  0.23647584185E-01  0.39828189594E+00  0.40281963997E+00  0.51109989000E-03 0.  1.
     -623    1    1    2    0    0 -0.21731271806E-01 -0.22516731716E-01  0.53875381133E-02  0.25126720064E+02  0.25126700000E+02 0. -1.
     -611    1    3    3    0    0  0.25941216778E-01  0.16939410635E-01  0.76908136974E+00  0.76977012390E+00  0.10000000000E-01 0. -1.
      611    1    3    3    0    0  0.51249267514E-01 -0.18070263104E-01  0.10827249185E+02  0.10827390172E+02  0.10000000000E-01 0.  1.
</event>
<event>
 7   0  0.6206631E-02  0.9118800E+02  0.7818608E-02  0.1180000E+00
       11   -1    0    0    0    0  0.00000000000E+00  0.00000000000E+00  0.11999999989E+02  0.12000000000E+02  0.51109989000E-03 0. -1.
     -623   -1    0    0    0    0  0.00000000000E+00  0.00000000000E+00  0.42561509872E-11  0.25126700000E+02  0.25126700000E+02 0. -1.
      622    2    1    2    0    0  0.94756327614E-02 -0.12255252649E-01  0.11975657073E+02  0.11976273634E+02  0.12053148791E+00 0.  0.
       11    1    1    2    0    0 -0.13529109340E-01 -0.33171260988E-02  0.19192956628E-01  0.23720685747E-01  0.51109989000E-03 0. -1.
     -623    1    1    2    0    0  0.40534765781E-02  0.15572378748E-01  0.51499591543E-02  0.25126705680E+02  0.25126700000E+02 0. -1.
     -611    1    3    3    0    0 -0.13292142449E-01 -0.30178405059E-01  0.11141877465E+02  0.11141930751E+02  0.10000000000E-01 0. -1.
      611    1    3    3    0    0  0.22767775210E-01  0.17923152410E-01  0.83377960831E+00  0.83434288288E+00  0.10000000000E-01 0.  1.
</event>
<event>
 7   0  0.6206631E-02  0.9118800E+02  0.7818608E-02  0.1180000E+00
       11   -1    0    0    0    0  0.00000000000E+00  0.00000000000E+00  0.11999999989E+02  0.12000000000E+02  0.51109989000E-03 0. -1.
     -623   -1    0    0    0    0  0.00000000000E+00  0.00000000000E+00  0.42561509872E-11  0.25126700000E+02  0.25126700000E+02 0. -1.
      622    2    1    2    0    0 -0.19435607819E-01 -0.10608828956E-01  0.11947444885E+02  0.11947800551E+02  0.89489863931E-01 0.  0.
       11    1    1    2    0    0  0.25255629259E-01  0.10649464276E-01  0.44419088472E-01  0.52197457242E-01  0.51109989000E-03 0. -1.
     -623    1    1    2    0    0 -0.58200214401E-02 -0.40635320048E-04  0.81360151567E-02  0.25126701991E+02  0.25126700000E+02 0. -1.
     -611    1    3    3    0    0  0.99591011845E-02 -0.43805229076E-01  0.67513555632E+01  0.67515124248E+01  0.10000000000E-01 0. -1.
      611    1    3    3    0    0 -0.29394709004E-01  0.33196400120E-01  0.51960893223E+01  0.51962881266E+01  0.10000000000E-01 0.  1.
</event>
<event>
 6   0  0.6206631E-02  0.9118800E+02  0.7818608E-02  0.1180000E+00
       11   -1    0    0    0    0  0.00000000000E+00  0.00000000000E+00  0.11999999989E+02  0.12000000000E+02  0.51109989000E-03 0.  1.
     -623   -1    0    0    0    0  0.00000000000E+00  0.00000000000E+00  0.42561509872E-11  0.25126700000E+02  0.25126700000E+02 0.  1.
       11    1    1    2    0    0  0.20070706424E-01 -0.19314981176E-01  0.13471466919E+01  0.13474347378E+01  0.51109989000E-03 0.  1.
     -623    1    1    2    0    0  0.81550411337E-01  0.65210344385E-01  0.51309482472E-02  0.25126917481E+02  0.25126700000E+02 0.  1.
     -611    1    1    2    0    0 -0.20466752117E+00 -0.14894184257E-01  0.67320477950E+01  0.67351821167E+01  0.10000000000E-01 0. -1.
      611    1    1    2    0    0  0.10304640341E+00 -0.31001178952E-01  0.39156745539E+01  0.39171656650E+01  0.10000000000E-01 0.  1.
</event>
<event>
 7   0  0.6206631E-02  0.9118800E+02  0.7818608E-02  0.1180000E+00
       11   -1    0    0    0    0  0.00000000000E+00  0.00000000000E+00  0.11999999989E+02  0.12000000000E+02  0.51109989000E-03 0.  1.
     -623   -1    0    0    0    0  0.00000000000E+00  0.00000000000E+00  0.42561509872E-11  0.25126700000E+02  0.25126700000E+02 0. -1.
      622    2    1    2    0    0  0.12370239789E+00  0.11265799254E+00  0.10861142112E+02  0.10862594644E+02  0.59668398483E-01 0.  0.
       11    1    1    2    0    0 -0.10259344309E+00 -0.12452631211E+00  0.11258882296E+01  0.11373903392E+01  0.51109989000E-03 0.  1.
     -623    1    1    2    0    0 -0.21108954799E-01  0.11868319570E-01  0.12969647832E-01  0.25126715017E+02  0.25126700000E+02 0. -1.
     -611    1    3    3    0    0  0.10992605334E+00  0.11445243540E+00  0.93060225007E+01  0.93073808281E+01  0.10000000000E-01 0.  1.
      611    1    3    3    0    0  0.13776344545E-01 -0.17944428598E-02  0.15551196110E+01  0.15552138156E+01  0.10000000000E-01 0.  1.
</event>
<event>
 7   0  0.6206631E-02  0.9118800E+02  0.7818608E-02  0.1180000E+00
       11   -1    0    0    0    0  0.00000000000E+00  0.00000000000E+00  0.11999999989E+02  0.12000000000E+02  0.51109989000E-03 0.  1.
     -623   -1    0    0    0    0  0.00000000000E+00  0.00000000000E+00  0.42561509872E-11  0.25126700000E+02  0.25126700000E+02 0.  1.
      622    2    1    2    0    0 -0.47179405447E-03 -0.18735806077E-01  0.11689702547E+02  0.11690632107E+02  0.14622644547E+00 0.  0.
       11    1    1    2    0    0  0.10957012773E-01  0.27833411006E-02  0.30915356336E+00  0.30936061494E+00  0.51109989000E-03 0.  1.
     -623    1    1    2    0    0 -0.10485218718E-01  0.15952464976E-01  0.11438785132E-02  0.25126707278E+02  0.25126700000E+02 0.  1.
     -611    1    3    3    0    0 -0.48836446993E-01 -0.20327385870E-01  0.17971512235E+01  0.17979573747E+01  0.10000000000E-01 0. -1.
      611    1    3    3    0    0  0.48364652938E-01  0.15915797938E-02  0.98925513237E+01  0.98926747326E+01  0.10000000000E-01 0.  1.
</event>
<event>
 7   0  0.6206631E-02  0.9118800E+02  0.7818608E-02  0.1180000E+00
       11   -1    0    0    0    0  0.00000000000E+00  0.00000000000E+00  0.11999999989E+02  0.12000000000E+02  0.51109989000E-03 0. -1.
     -623   -1    0    0    0    0  0.00000000000E+00  0.00000000000E+00  0.42561509872E-11  0.25126700000E+02  0.25126700000E+02 0. -1.
      622    2    1    2    0    0  0.60591230976E-01 -0.99154782448E-02  0.93298349067E+01  0.93310406837E+01  0.13686212412E+00 0.  0.
       11    1    1    2    0    0 -0.70389311083E-01 -0.30447252287E-01  0.26678227177E+01  0.26689248780E+01  0.51109989000E-03 0. -1.
     -623    1    1    2    0    0  0.97980801070E-02  0.40362730532E-01  0.23423647001E-02  0.25126734438E+02  0.25126700000E+02 0. -1.
     -611    1    3    3    0    0  0.77809372776E-01 -0.52970258471E-01  0.74749520538E+01  0.74755513745E+01  0.10000000000E-01 0. -1.
      611    1    3    3    0    0 -0.17218141800E-01  0.43054780227E-01  0.18548828529E+01  0.18554893092E+01  0.10000000000E-01 0.  1.
</event>
<event>
 7   0  0.6206631E-02  0.9118800E+02  0.7818608E-02  0.1180000E+00
       11   -1    0    0    0    0  0.00000000000E+00  0.00000000000E+00  0.11999999989E+02  0.12000000000E+02  0.51109989000E-03 0.  1.
     -623   -1    0    0    0    0  0.00000000000E+00  0.00000000000E+00  0.42561509872E-11  0.25126700000E+02  0.25126700000E+02 0. -1.
      622    2    1    2    0    0 -0.13231392083E-01 -0.57038238246E-02  0.10704404540E+02  0.10704888568E+02  0.10077244614E+00 0.  0.
       11    1    1    2    0    0  0.31671430395E-02  0.91271093000E-02  0.12950730429E+01  0.12951091779E+01  0.51109989000E-03 0.  1.
     -623    1    1    2    0    0  0.10064249043E-01 -0.34232854754E-02  0.52240590057E-03  0.25126702254E+02  0.25126700000E+02 0. -1.
     -611    1    3    3    0    0  0.23790899917E-02 -0.45303012147E-01  0.79617379724E+01  0.79618734959E+01  0.10000000000E-01 0.  1.
      611    1    3    3    0    0 -0.15610482075E-01  0.39599188322E-01  0.27426665679E+01  0.27430150720E+01  0.10000000000E-01 0.  1.
</event>
<event>
 7   0  0.6206631E-02  0.9118800E+02  0.7818608E-02  0.1180000E+00
       11   -1    0    0    0    0  0.00000000000E+00  0.00000000000E+00  0.11999999989E+02  0.12000000000E+02  0.51109989000E-03 0. -1.
     -623   -1    0    0    0    0  0.00000000000E+00  0.00000000000E+00  0.42561509872E-11  0.25126700000E+02  0.25126700000E+02 0.  1.
      622    2    1    2    0    0 -0.27511839194E-01 -0.81111757723E-02  0.11753538148E+02  0.11753732513E+02  0.61207103294E-01 0.  0.
       11    1    1    2    0    0  0.95762145116E-02 -0.15401207796E-01  0.24558080982E+00  0.24625006896E+00  0.51109989000E-03 0. -1.
     -623    1    1    2    0    0  0.17935624682E-01  0.23512383568E-01  0.88103135882E-03  0.25126717418E+02  0.25126700000E+02 0.  1.
     -611    1    3    3    0    0 -0.34547668809E-01  0.27666541014E-02  0.10753216461E+02  0.10753276964E+02  0.10000000000E-01 0. -1.
      611    1    3    3    0    0  0.70358296157E-02 -0.10877829874E-01  0.10003216866E+01  0.10004555496E+01  0.10000000000E-01 0.  1.
</event>
<event>
 7   0  0.6206631E-02  0.9118800E+02  0.7818608E-02  0.1180000E+00
       11   -1    0    0    0    0  0.00000000000E+00  0.00000000000E+00  0.11999999989E+02  0.12000000000E+02  0.51109989000E-03 0.  1.
     -623   -1    0    0    0    0  0.00000000000E+00  0.00000000000E+00  0.42561509872E-11  0.25126700000E+02  0.25126700000E+02 0. -1.
      622    2    1    2    0    0 -0.49098262778E-02  0.34609094896E-02  0.82436620159E+01  0.82439813291E+01  0.72309329637E-01 0.  0.
       11    1    1    2    0    0  0.11125465945E-01 -0.16152141067E-01  0.37559634521E+01  0.37560146942E+01  0.51109989000E-03 0.  1.
     -623    1    1    2    0    0 -0.62156396675E-02  0.12691231577E-01  0.37452109205E-03  0.25126703977E+02  0.25126700000E+02 0. -1.
     -611    1    3    3    0    0 -0.32876998594E-01  0.15638375733E-01  0.33199709966E+01  0.33201856687E+01  0.10000000000E-01 0. -1.
      611    1    3    3    0    0  0.27967172316E-01 -0.12177466244E-01  0.49236910192E+01  0.49237956605E+01  0.10000000000E-01 0.  1.
</event>
<event>
 7   0  0.6206631E-02  0.9118800E+02  0.7818608E-02  0.1180000E+00
       11   -1    0    0    0    0  0.00000000000E+00  0.00000000000E+00  0.11999999989E+02  0.12000000000E+02  0.51109989000E-03 0.  1.
     -623   -1    0    0    0    0  0.00000000000E+00  0.00000000000E+00  0.42561509872E-11  0.25126700000E+02  0.25126700000E+02 0.  1.
      622    2    1    2    0    0 -0.47785619926E-01  0.26611698568E-01  0.11917577511E+02  0.11918113949E+02  0.98968394789E-01 0.  0.
       11    1    1    2    0    0  0.32930654588E-01 -0.44991236532E-02  0.74819069112E-01  0.81870778982E-01  0.51109989000E-03 0.  1.
     -623    1    1    2    0    0  0.14854965337E-01 -0.22112574915E-01  0.76034094047E-02  0.25126715272E+02  0.25126700000E+02 0.  1.
     -611    1    3    3    0    0  0.16283452878E-01  0.42165939375E-01  0.46400968241E+01  0.46403277529E+01  0.10000000000E-01 0. -1.
      611    1    3    3    0    0 -0.64069072804E-01 -0.15554240807E-01  0.72774806865E+01  0.72777861966E+01  0.10000000000E-01 0.  1.
</event>
<event>
 7   0  0.6206631E-02  0.9118800E+02  0.7818608E-02  0.1180000E+00
       11   -1    0    0    0    0  0.00000000000E+00  0.00000000000E+00  0.11999999989E+02  0.12000000000E+02  0.51109989000E-03 0.  1.
     -623   -1    0    0    0    0  0.00000000000E+00  0.00000000000E+00  0.42561509872E-11  0.25126700000E+02  0.25126700000E+02 0.  1.
      622    2    1    2    0    0  0.38232373160E-02 -0.15287185311E-02  0.11961648551E+02  0.11962074561E+02  0.10087015310E+00 0.  0.
       11    1    1    2    0    0  0.67352228190E-03  0.33599419925E-02  0.37766370599E-01  0.37924962937E-01  0.51109989000E-03 0.  1.
     -623    1    1    2    0    0 -0.44967595979E-02 -0.18312234614E-02  0.58506723612E-03  0.25126700476E+02  0.25126700000E+02 0.  1.
     -611    1    3    3    0    0 -0.10265758347E-01 -0.11320591425E-02  0.11603844943E+02  0.11603853848E+02  0.10000000000E-01 0.  1.
      611    1    3    3    0    0  0.14088995663E-01 -0.39665938862E-03  0.35780360840E+00  0.35822071314E+00  0.10000000000E-01 0.  1.
</event>
<event>
 7   0  0.6206631E-02  0.9118800E+02  0.7818608E-02  0.1180000E+00
       11   -1    0    0    0    0  0.00000000000E+00  0.00000000000E+00  0.11999999989E+02  0.12000000000E+02  0.51109989000E-03 0. -1.
     -623   -1    0    0    0    0  0.00000000000E+00  0.00000000000E+00  0.42561509872E-11  0.25126700000E+02  0.25126700000E+02 0.  1.
      622    2    1    2    0    0  0.00000000000E+00  0.00000000000E+00  0.11327583192E+02  0.11328082625E+02  0.10637185072E+00 0.  0.
       11    1    1    2    0    0 -0.51269065046E-03  0.13697307584E-01  0.67184080886E+00  0.67198081279E+00  0.51109989000E-03 0. -1.
     -623    1    1    2    0    0  0.51269065046E-03 -0.13697307584E-01  0.64316922569E-03  0.25126703747E+02  0.25126700000E+02 0.  1.
     -611    1    3    3    0    0  0.16121626027E-01 -0.46344672365E-01  0.75718297814E+01  0.75719953760E+01  0.10000000000E-01 0.  1.
      611    1    3    3    0    0 -0.16121626027E-01  0.46344672365E-01  0.37557534109E+01  0.37560872486E+01  0.10000000000E-01 0. -1.
</event>
<event>
 7   0  0.6206631E-02  0.9118800E+02  0.7818608E-02  0.1180000E+00
       11   -1    0    0    0    0  0.00000000000E+00  0.00000000000E+00  0.11999999989E+02  0.12000000000E+02  0.51109989000E-03 0. -1.
     -623   -1    0    0    0    0  0.00000000000E+00  0.00000000000E+00  0.42561509872E-11  0.25126700000E+02  0.25126700000E+02 0.  1.
      622    2    1    2    0    0  0.17703771529E-02 -0.31731242952E-02  0.11895679138E+02  0.11895974849E+02  0.83798928771E-01 0.  0.
       11    1    1    2    0    0 -0.42688644205E-03  0.37729150892E-02  0.10395452904E+00  0.10402510491E+00  0.51109989000E-03 0. -1.
     -623    1    1    2    0    0 -0.13434907108E-02 -0.59979079396E-03  0.36632213979E-03  0.25126700046E+02  0.25126700000E+02 0.  1.
     -611    1    3    3    0    0  0.11090949749E-01 -0.12392004115E-01  0.66374857614E+00  0.66403218541E+00  0.10000000000E-01 0.  1.
      611    1    3    3    0    0 -0.93205725961E-02  0.92188798194E-02  0.11231930562E+02  0.11231942664E+02  0.10000000000E-01 0. -1.
</event>
<event>
 7   0  0.6206631E-02  0.9118800E+02  0.7818608E-02  0.1180000E+00
       11   -1    0    0    0    0  0.00000000000E+00  0.00000000000E+00  0.11999999989E+02  0.12000000000E+02  0.51109989000E-03 0. -1.
     -623   -1    0    0    0    0  0.00000000000E+00  0.00000000000E+00  0.42561509872E-11  0.25126700000E+02  0.25126700000E+02 0.  1.
      622    2    1    2    0    0 -0.33982016305E-01 -0.29790765992E-01  0.11020609513E+02  0.11021221808E+02  0.10702263224E+00 0.  0.
       11    1    1    2    0    0  0.49247106398E-01  0.87009029778E-02  0.97748604109E+00  0.97876463205E+00  0.51109989000E-03 0. -1.
     -623    1    1    2    0    0 -0.15265090093E-01  0.21089863014E-01  0.19044353543E-02  0.25126713560E+02  0.25126700000E+02 0.  1.
     -611    1    3    3    0    0 -0.67007293967E-02  0.30182788269E-02  0.94312699370E+01  0.94312781018E+01  0.10000000000E-01 0. -1.
      611    1    3    3    0    0 -0.27281286908E-01 -0.32809044819E-01  0.15893395757E+01  0.15899437062E+01  0.10000000000E-01 0. -1.
</event>
<event>
 7   0  0.6206631E-02  0.9118800E+02  0.7818608E-02  0.1180000E+00
       11   -1    0    0    0    0  0.00000000000E+00  0.00000000000E+00  0.11999999989E+02  0.12000000000E+02  0.51109989000E-03 0. -1.
     -623   -1    0    0    0    0  0.00000000000E+00  0.00000000000E+00  0.42561509872E-11  0.25126700000E+02  0.25126700000E+02 0.  1.
      622    2    1    2    0    0 -0.41056944030E-02 -0.34269705136E-01  0.10241709316E+02  0.10242228060E+02  0.97132118633E-01 0.  0.
       11    1    1    2    0    0  0.19370267797E-01 -0.86379768853E-02  0.17576026243E+01  0.17577306586E+01  0.51109989000E-03 0. -1.
     -623    1    1    2    0    0 -0.15264573394E-01  0.42907682021E-01  0.68804905495E-03  0.25126741282E+02  0.25126700000E+02 0.  1.
     -611    1    3    3    0    0 -0.12868169419E-01 -0.20665850980E-01  0.98678705560E+01  0.98679056531E+01  0.10000000000E-01 0. -1.
      611    1    3    3    0    0  0.87624750163E-02 -0.13603854156E-01  0.37383875975E+00  0.37432240663E+00  0.10000000000E-01 0.  1.
</event>
<event>
 7   0  0.6206631E-02  0.9118800E+02  0.7818608E-02  0.1180000E+00
       11   -1    0    0    0    0  0.00000000000E+00  0.00000000000E+00  0.11999999989E+02  0.12000000000E+02  0.51109989000E-03 0. -1.
     -623   -1    0    0    0    0  0.00000000000E+00  0.00000000000E+00  0.42561509872E-11  0.25126700000E+02  0.25126700000E+02 0.  1.
      622    2    1    2    0    0  0.22405048096E-01  0.10005303658E+00  0.74638942572E+01  0.74649643994E+01  0.73914853961E-01 0.  0.
       11    1    1    2    0    0 -0.25056064618E-01 -0.11038741884E+00  0.45336202741E+01  0.45350332126E+01  0.51109989000E-03 0. -1.
     -623    1    1    2    0    0  0.26510165216E-02  0.10334382262E-01  0.24854578543E-02  0.25126702388E+02  0.25126700000E+02 0.  1.
     -611    1    3    3    0    0  0.42732934460E-01  0.44813047974E-01  0.47458215758E+01  0.47462360605E+01  0.10000000000E-01 0.  1.
      611    1    3    3    0    0 -0.20327886364E-01  0.55239988602E-01  0.27180726814E+01  0.27187283389E+01  0.10000000000E-01 0. -1.
</event>
<event>
 7   0  0.6206631E-02  0.9118800E+02  0.7818608E-02  0.1180000E+00
       11   -1    0    0    0    0  0.00000000000E+00  0.00000000000E+00  0.11999999989E+02  0.12000000000E+02  0.51109989000E-03 0. -1.
     -623   -1    0    0    0    0  0.00000000000E+00  0.00000000000E+00  0.42561509872E-11  0.25126700000E+02  0.25126700000E+02 0. -1.
      622    2    1    2    0    0 -0.78875777213E-02 -0.77070712725E-03  0.11668460922E+02  0.11668805393E+02  0.89309658920E-01 0.  0.
       11    1    1    2    0    0 -0.16765376610E-02  0.12443479937E-02  0.33118580401E+00  0.33119277948E+00  0.51109989000E-03 0. -1.
     -623    1    1    2    0    0  0.95641153823E-02 -0.47364086645E-03  0.35326325730E-03  0.25126701827E+02  0.25126700000E+02 0. -1.
     -611    1    3    3    0    0  0.15544598419E-01  0.15409305721E-01  0.10228129572E+02  0.10228157880E+02  0.10000000000E-01 0. -1.
      611    1    3    3    0    0 -0.23432176140E-01 -0.16180012848E-01  0.14403313501E+01  0.14406475134E+01  0.10000000000E-01 0.  1.
</event>
<event>
 7   0  0.6206631E-02  0.9118800E+02  0.7818608E-02  0.1180000E+00
       11   -1    0    0    0    0  0.00000000000E+00  0.00000000000E+00  0.11999999989E+02  0.12000000000E+02  0.51109989000E-03 0. -1.
     -623   -1    0    0    0    0  0.00000000000E+00  0.00000000000E+00  0.42561509872E-11  0.25126700000E+02  0.25126700000E+02 0.  1.
      622    2    1    2    0    0 -0.19028350755E-02 -0.17886774553E-02  0.88213525345E+01  0.88213920482E+01  0.26273762904E-01 0.  0.
       11    1    1    2    0    0  0.24775958210E-02  0.16367642087E-02  0.31786065161E+01  0.31786079442E+01  0.51109989000E-03 0. -1.
     -623    1    1    2    0    0 -0.57476074547E-03  0.15191324670E-03  0.40938017218E-04  0.25126700007E+02  0.25126700000E+02 0.  1.
     -611    1    3    3    0    0  0.54742659052E-02  0.28052315140E-02  0.55940578985E+01  0.55940702184E+01  0.10000000000E-01 0. -1.
      611    1    3    3    0    0 -0.73771009807E-02 -0.45939089693E-02  0.32272946360E+01  0.32273218298E+01  0.10000000000E-01 0. -1.
</event>
<event>
 7   0  0.6206631E-02  0.9118800E+02  0.7818608E-02  0.1180000E+00
       11   -1    0    0    0    0  0.00000000000E+00  0.00000000000E+00  0.11999999989E+02  0.12000000000E+02  0.51109989000E-03 0. -1.
     -623   -1    0    0    0    0  0.00000000000E+00  0.00000000000E+00  0.42561509872E-11  0.25126700000E+02  0.25126700000E+02 0. -1.
      622    2    1    2    0    0  0.97860660219E-03  0.16371828232E-02  0.11978931885E+02  0.11979083392E+02  0.60217734657E-01 0.  0.
       11    1    1    2    0    0 -0.66319172351E-03 -0.16281502007E-02  0.20836325058E-01  0.20916604920E-01  0.51109989000E-03 0. -1.
     -623    1    1    2    0    0 -0.31541487869E-03 -0.90326225344E-05  0.23177930734E-03  0.25126700003E+02  0.25126700000E+02 0. -1.
     -611    1    3    3    0    0  0.41030645077E-02 -0.14862722367E-01  0.12631318029E+01  0.12632654857E+01  0.10000000000E-01 0.  1.
      611    1    3    3    0    0 -0.31244579055E-02  0.16499905191E-01  0.10715800082E+02  0.10715817906E+02  0.10000000000E-01 0. -1.
</event>
<event>
 7   0  0.6206631E-02  0.9118800E+02  0.7818608E-02  0.1180000E+00
       11   -1    0    0    0    0  0.00000000000E+00  0.00000000000E+00  0.11999999989E+02  0.12000000000E+02  0.51109989000E-03 0. -1.
     -623   -1    0    0    0    0  0.00000000000E+00  0.00000000000E+00  0.42561509872E-11  0.25126700000E+02  0.25126700000E+02 0.  1.
      622    2    1    2    0    0 -0.49173600737E-04  0.10319891625E-02  0.11943513521E+02  0.11943672919E+02  0.61696825276E-01 0.  0.
       11    1    1    2    0    0  0.35331671355E-02  0.13139591071E-02  0.56198125516E-01  0.56326728054E-01  0.51109989000E-03 0. -1.
     -623    1    1    2    0    0 -0.34839935347E-02 -0.23459482696E-02  0.28834219540E-03  0.25126700353E+02  0.25126700000E+02 0.  1.
     -611    1    3    3    0    0 -0.20821006682E-01 -0.19943046233E-01  0.60668329300E+01  0.60669096779E+01  0.10000000000E-01 0. -1.
      611    1    3    3    0    0  0.20771833082E-01  0.20975035396E-01  0.58766805914E+01  0.58767632414E+01  0.10000000000E-01 0.  1.
</event>
<event>
 7   0  0.6206631E-02  0.9118800E+02  0.7818608E-02  0.1180000E+00
       11   -1    0    0    0    0  0.00000000000E+00  0.00000000000E+00  0.11999999989E+02  0.12000000000E+02  0.51109989000E-03 0. -1.
     -623   -1    0    0    0    0  0.00000000000E+00  0.00000000000E+00  0.42561509872E-11  0.25126700000E+02  0.25126700000E+02 0. -1.
      622    2    1    2    0    0 -0.12343223978E-01 -0.30680579700E-01  0.11027444205E+02  0.11027921774E+02  0.97156072682E-01 0.  0.
       11    1    1    2    0    0  0.28811987836E-01  0.35021998320E-01  0.97101381677E+00  0.97207240708E+00  0.51109989000E-03 0. -1.
     -623    1    1    2    0    0 -0.16468763858E-01 -0.43414186207E-02  0.15419676865E-02  0.25126705819E+02  0.25126700000E+02 0. -1.
     -611    1    3    3    0    0  0.32489915947E-02  0.24935033124E-01  0.12100235370E+01  0.12103261015E+01  0.10000000000E-01 0.  1.
      611    1    3    3    0    0 -0.15592215572E-01 -0.55615612823E-01  0.98174206677E+01  0.98175956720E+01  0.10000000000E-01 0. -1.
</event>
<event>
 7   0  0.6206631E-02  0.9118800E+02  0.7818608E-02  0.1180000E+00
       11   -1    0    0    0    0  0.00000000000E+00  0.00000000000E+00  0.11999999989E+02  0.12000000000E+02  0.51109989000E-03 0.  1.
     -623   -1    0    0    0    0  0.00000000000E+00  0.00000000000E+00  0.42561509872E-11  0.25126700000E+02  0.25126700000E+02 0. -1.
      622    2    1    2    0    0 -0.37569279148E-01 -0.36723288754E-01  0.11475427413E+02  0.11476130237E+02  0.11563240100E+00 0.  0.
       11    1    1    2    0    0 -0.72856128572E-02 -0.82723501614E-02  0.52367316726E+00  0.52378942263E+00  0.51109989000E-03 0.  1.
     -623    1    1    2    0    0  0.44854892005E-01  0.44995638915E-01  0.89940863764E-03  0.25126780340E+02  0.25126700000E+02 0. -1.
     -611    1    3    3    0    0 -0.40282043591E-01  0.19525074308E-01  0.19825519889E+01  0.19830825148E+01  0.10000000000E-01 0. -1.
      611    1    3    3    0    0  0.27127644430E-02 -0.56248363062E-01  0.94928754243E+01  0.94930477223E+01  0.10000000000E-01 0.  1.
</event>
<event>
 7   0  0.6206631E-02  0.9118800E+02  0.7818608E-02  0.1180000E+00
       11   -1    0    0    0    0  0.00000000000E+00  0.00000000000E+00  0.11999999989E+02  0.12000000000E+02  0.51109989000E-03 0.  1.
     -623   -1    0    0    0    0  0.00000000000E+00  0.00000000000E+00  0.42561509872E-11  0.25126700000E+02  0.25126700000E+02 0. -1.
      622    2    1    2    0    0  0.22316334917E-01 -0.19576828098E-01  0.93421237953E+01  0.93442452862E+01  0.19687989108E+00 0.  0.
       11    1    1    2    0    0 -0.17503523765E-01  0.84629862442E-02  0.26556804835E+01  0.26557516990E+01  0.51109989000E-03 0.  1.
     -623    1    1    2    0    0 -0.48128111518E-02  0.11113841854E-01  0.21957103825E-02  0.25126703015E+02  0.25126700000E+02 0. -1.
     -611    1    3    3    0    0  0.65125992633E-01  0.71659824386E-01  0.42542448617E+01  0.42553584889E+01  0.10000000000E-01 0.  1.
      611    1    3    3    0    0 -0.42809657716E-01 -0.91236652484E-01  0.50878789336E+01  0.50888867973E+01  0.10000000000E-01 0. -1.
</event>
<event>
 7   0  0.6206631E-02  0.9118800E+02  0.7818608E-02  0.1180000E+00
       11   -1    0    0    0    0  0.00000000000E+00  0.00000000000E+00  0.11999999989E+02  0.12000000000E+02  0.51109989000E-03 0.  1.
     -623   -1    0    0    0    0  0.00000000000E+00  0.00000000000E+00  0.42561509872E-11  0.25126700000E+02  0.25126700000E+02 0. -1.
      622    2    1    2    0    0  0.42321827579E-03 -0.30822868091E-02  0.11986620043E+02  0.11987084504E+02  0.10547594580E+00 0.  0.
       11    1    1    2    0    0  0.46939076158E-03  0.33358376955E-02  0.12457921120E-01  0.12915462152E-01  0.51109989000E-03 0.  1.
     -623    1    1    2    0    0 -0.89260903737E-03 -0.25355088647E-03  0.92202536799E-03  0.25126700034E+02  0.25126700000E+02 0. -1.
     -611    1    3    3    0    0 -0.45091503431E-01 -0.25694836853E-01  0.52840701112E+01  0.52843344338E+01  0.10000000000E-01 0. -1.
      611    1    3    3    0    0  0.45514721707E-01  0.22612550044E-01  0.67025499314E+01  0.67027500700E+01  0.10000000000E-01 0.  1.
</event>
<event>
 7   0  0.6206631E-02  0.9118800E+02  0.7818608E-02  0.1180000E+00
       11   -1    0    0    0    0  0.00000000000E+00  0.00000000000E+00  0.11999999989E+02  0.12000000000E+02  0.51109989000E-03 0. -1.
     -623   -1    0    0    0    0  0.00000000000E+00  0.00000000000E+00  0.42561509872E-11  0.25126700000E+02  0.25126700000E+02 0. -1.
      622    2    1    2    0    0 -0.12681085457E-02 -0.28405588165E-02  0.11968474022E+02  0.11969118488E+02  0.12416640016E+00 0.  0.
       11    1    1    2    0    0  0.41837090450E-03  0.49587696390E-02  0.30473502637E-01  0.30881386248E-01  0.51109989000E-03 0. -1.
     -623    1    1    2    0    0  0.84973764124E-03 -0.21182108225E-02  0.10524647307E-02  0.25126700126E+02  0.25126700000E+02 0. -1.
     -611    1    3    3    0    0 -0.36366442222E-01  0.64097212084E-02  0.10739015752E+02  0.10739083896E+02  0.10000000000E-01 0. -1.
      611    1    3    3    0    0  0.35098333676E-01 -0.92502800249E-02  0.12294582693E+01  0.12300345917E+01  0.10000000000E-01 0.  1.
</event>
<event>
 7   0  0.6206631E-02  0.9118800E+02  0.7818608E-02  0.1180000E+00
       11   -1    0    0    0    0  0.00000000000E+00  0.00000000000E+00  0.11999999989E+02  0.12000000000E+02  0.51109989000E-03 0.  1.
     -623   -1    0    0    0    0  0.00000000000E+00  0.00000000000E+00  0.42561509872E-11  0.25126700000E+02  0.25126700000E+02 0. -1.
      622    2    1    2    0    0 -0.43800846847E-02 -0.77830967244E-02  0.84353742477E+01  0.84354130295E+01  0.23969100447E-01 0.  0.
       11    1    1    2    0    0  0.54125319557E-02  0.75854682820E-02  0.35645747313E+01  0.35645869481E+01  0.51109989000E-03 0.  1.
     -623    1    1    2    0    0 -0.10324472709E-02  0.19762844267E-03  0.51009833063E-04  0.25126700022E+02  0.25126700000E+02 0. -1.
     -611    1    3    3    0    0 -0.59653314191E-03 -0.83449754419E-02  0.61363694890E+01  0.61363833403E+01  0.10000000000E-01 0.  1.
      611    1    3    3    0    0 -0.37835515428E-02  0.56187871747E-03  0.22990047587E+01  0.22990296892E+01  0.10000000000E-01 0.  1.
</event>
<event>
 7   0  0.6206631E-02  0.9118800E+02  0.7818608E-02  0.1180000E+00
       11   -1    0    0    0    0  0.00000000000E+00  0.00000000000E+00  0.11999999989E+02  0.12000000000E+02  0.51109989000E-03 0.  1.
     -623   -1    0    0    0    0  0.00000000000E+00  0.00000000000E+00  0.42561509872E-11  0.25126700000E+02  0.25126700000E+02 0. -1.
      622    2    1    2    0    0 -0.72426801306E-02  0.19360288868E-01  0.76256871938E+01  0.76262299771E+01  0.88607051747E-01 0.  0.
       11    1    1    2    0    0  0.79138310076E-02 -0.18163778873E-01  0.43737250728E+01  0.43737699785E+01  0.51109989000E-03 0.  1.
     -623    1    1    2    0    0 -0.67115087692E-03 -0.11965099950E-02  0.58772255127E-03  0.25126700044E+02  0.25126700000E+02 0. -1.
     -611    1    3    3    0    0  0.35380704115E-01  0.16966791893E-01  0.51123145501E+01  0.51124749120E+01  0.10000000000E-01 0.  1.
      611    1    3    3    0    0 -0.42623384246E-01  0.23934969745E-02  0.25133726436E+01  0.25137550651E+01  0.10000000000E-01 0. -1.
</event>
<event>
 7   0  0.6206631E-02  0.9118800E+02  0.7818608E-02  0.1180000E+00
       11   -1    0    0    0    0  0.00000000000E+00  0.00000000000E+00  0.11999999989E+02  0.12000000000E+02  0.51109989000E-03 0. -1.
     -623   -1    0    0    0    0  0.00000000000E+00  0.00000000000E+00  0.42561509872E-11  0.25126700000E+02  0.25126700000E+02 0. -1.
      622    2    1    2    0    0  0.16306291519E-01  0.41066230346E-01  0.11445813564E+02  0.11446499481E+02  0.11725999687E+00 0.  0.
       11    1    1    2    0    0 -0.36895559407E-01 -0.25495862943E-01  0.55166694961E+00  0.55348713250E+00  0.51109989000E-03 0. -1.
     -623    1    1    2    0    0  0.20589267888E-01 -0.15570367404E-01  0.25194756719E-02  0.25126713386E+02  0.25126700000E+02 0. -1.
     -611    1    3    3    0    0 -0.49407509513E-01  0.20442150860E-01  0.58570714865E+01  0.58573240803E+01  0.10000000000E-01 0. -1.
      611    1    3    3    0    0  0.65713801032E-01  0.20624079487E-01  0.55887420774E+01  0.55891754010E+01  0.10000000000E-01 0.  1.
</event>
<event>
 7   0  0.6206631E-02  0.9118800E+02  0.7818608E-02  0.1180000E+00
       11   -1    0    0    0    0  0.00000000000E+00  0.00000000000E+00  0.11999999989E+02  0.12000000000E+02  0.51109989000E-03 0. -1.
     -623   -1    0    0    0    0  0.00000000000E+00  0.00000000000E+00  0.42561509872E-11  0.25126700000E+02  0.25126700000E+02 0. -1.
      622    2    1    2    0    0  0.10456945067E-02  0.80073584031E-03  0.11971386544E+02  0.11971585987E+02  0.69090724994E-01 0.  0.
       11    1    1    2    0    0 -0.32693477479E-02  0.22909086777E-02  0.28127234451E-01  0.28413719190E-01  0.51109989000E-03 0. -1.
     -623    1    1    2    0    0  0.22236532412E-02 -0.30916445180E-02  0.48621035398E-03  0.25126700293E+02  0.25126700000E+02 0. -1.
     -611    1    3    3    0    0 -0.32388846741E-02  0.31311421898E-01  0.79656925927E+01  0.79657610670E+01  0.10000000000E-01 0. -1.
      611    1    3    3    0    0  0.42845791808E-02 -0.30510686058E-01  0.40056939516E+01  0.40058249205E+01  0.10000000000E-01 0.  1.
</event>
<event>
 7   0  0.6206631E-02  0.9118800E+02  0.7818608E-02  0.1180000E+00
       11   -1    0    0    0    0  0.00000000000E+00  0.00000000000E+00  0.11999999989E+02  0.12000000000E+02  0.51109989000E-03 0. -1.
     -623   -1    0    0    0    0  0.00000000000E+00  0.00000000000E+00  0.42561509872E-11  0.25126700000E+02  0.25126700000E+02 0. -1.
      622    2    1    2    0    0  0.89813750383E-03 -0.56350462185E-02  0.11770080828E+02  0.11770701523E+02  0.12074386807E+00 0.  0.
       11    1    1    2    0    0 -0.89772680631E-02 -0.83739104998E-02  0.22896380038E+00  0.22929325509E+00  0.51109989000E-03 0. -1.
     -623    1    1    2    0    0  0.80791305593E-02  0.14008956718E-01  0.95536091201E-03  0.25126705222E+02  0.25126700000E+02 0. -1.
     -611    1    3    3    0    0  0.28506065898E-01  0.16773754823E-01  0.10716268046E+01  0.10721837357E+01  0.10000000000E-01 0.  1.
      611    1    3    3    0    0 -0.27607928394E-01 -0.22408801042E-01  0.10698454023E+02  0.10698517787E+02  0.10000000000E-01 0. -1.
</event>
<event>
 7   0  0.6206631E-02  0.9118800E+02  0.7818608E-02  0.1180000E+00
       11   -1    0    0    0    0  0.00000000000E+00  0.00000000000E+00  0.11999999989E+02  0.12000000000E+02  0.51109989000E-03 0.  1.
     -623   -1    0    0    0    0  0.00000000000E+00  0.00000000000E+00  0.42561509872E-11  0.25126700000E+02  0.25126700000E+02 0.  1.
      622    2    1    2    0    0 -0.30127501767E-01  0.45424273912E-01  0.10408407011E+02  0.10408951277E+02  0.91428409554E-01 0.  0.
       11    1    1    2    0    0  0.31235039380E-01 -0.36531144389E-01  0.15903208596E+01  0.15910470923E+01  0.51109989000E-03 0.  1.
     -623    1    1    2    0    0 -0.11075376131E-02 -0.88931295236E-02  0.12721184339E-02  0.25126701630E+02  0.25126700000E+02 0.  1.
     -611    1    3    3    0    0  0.57367529604E-02  0.14478021964E-02  0.73058618724E+01  0.73058711120E+01  0.10000000000E-01 0. -1.
      611    1    3    3    0    0 -0.35864254727E-01  0.43976471716E-01  0.31025451387E+01  0.31030801653E+01  0.10000000000E-01 0.  1.
</event>
<event>
 7   0  0.6206631E-02  0.9118800E+02  0.7818608E-02  0.1180000E+00
       11   -1    0    0    0    0  0.00000000000E+00  0.00000000000E+00  0.11999999989E+02  0.12000000000E+02  0.51109989000E-03 0. -1.
     -623   -1    0    0    0    0  0.00000000000E+00  0.00000000000E+00  0.42561509872E-11  0.25126700000E+02  0.25126700000E+02 0. -1.
      622    2    1    2    0    0 -0.94772175913E-02 -0.30742917668E-01  0.11056922654E+02  0.11057467232E+02  0.10491936240E+00 0.  0.
       11    1    1    2    0    0  0.79368787644E-02  0.32298142989E-01  0.94194552150E+00  0.94253264707E+00  0.51109989000E-03 0. -1.
     -623    1    1    2    0    0  0.15403388270E-02 -0.15552253210E-02  0.11318138373E-02  0.25126700121E+02  0.25126700000E+02 0. -1.
     -611    1    3    3    0    0 -0.19104769302E-01 -0.57186126978E-01  0.97971314449E+01  0.97973220725E+01  0.10000000000E-01 0. -1.
      611    1    3    3    0    0  0.96275517112E-02  0.26443209310E-01  0.12597912089E+01  0.12601451595E+01  0.10000000000E-01 0.  1.
</event>
<event>
 7   0  0.6206631E-02  0.9118800E+02  0.7818608E-02  0.1180000E+00
       11   -1    0    0    0    0  0.00000000000E+00  0.00000000000E+00  0.11999999989E+02  0.12000000000E+02  0.51109989000E-03 0. -1.
     -623   -1    0    0    0    0  0.00000000000E+00  0.00000000000E+00  0.42561509872E-11  0.25126700000E+02  0.25126700000E+02 0. -1.
      622    2    1    2    0    0 -0.45638540094E-02  0.10713277001E-02  0.11971843484E+02  0.11972032955E+02  0.67191555961E-01 0.  0.
       11    1    1    2    0    0  0.35615109629E-02 -0.84842805629E-03  0.27721630372E-01  0.27967019937E-01  0.51109989000E-03 0. -1.
     -623    1    1    2    0    0  0.10023430465E-02 -0.22289964379E-03  0.43487490884E-03  0.25126700025E+02  0.25126700000E+02 0. -1.
     -611    1    3    3    0    0  0.11070138277E-01 -0.28470189690E-01  0.51556030341E+01  0.51557032250E+01  0.10000000000E-01 0.  1.
      611    1    3    3    0    0 -0.15633992286E-01  0.29541517390E-01  0.68162404497E+01  0.68163297303E+01  0.10000000000E-01 0. -1.
</event>
<event>
 7   0  0.6206631E-02  0.9118800E+02  0.7818608E-02  0.1180000E+00
       11   -1    0    0    0    0  0.00000000000E+00  0.00000000000E+00  0.11999999989E+02  0.12000000000E+02  0.51109989000E-03 0.  1.
     -623   -1    0    0    0    0  0.00000000000E+00  0.00000000000E+00  0.42561509872E-11  0.25126700000E+02  0.25126700000E+02 0.  1.
      622    2    1    2    0    0 -0.20447191424E-02 -0.16308810655E-02  0.51114493862E+01  0.51117483983E+01  0.55226973180E-01 0.  0.
       11    1    1    2    0    0 -0.10537935638E-01  0.18544107177E-01  0.68882097153E+01  0.68882427567E+01  0.51109989000E-03 0.  1.
     -623    1    1    2    0    0  0.12582654780E-01 -0.16913226112E-01  0.34088765901E-03  0.25126708845E+02  0.25126700000E+02 0.  1.
     -611    1    3    3    0    0 -0.10252410085E-01 -0.17090352622E-01  0.99566909659E+00  0.99591874265E+00  0.10000000000E-01 0. -1.
      611    1    3    3    0    0  0.82076909423E-02  0.15459471557E-01  0.41157802896E+01  0.41158296556E+01  0.10000000000E-01 0.  1.
</event>
<event>
 7   0  0.6206631E-02  0.9118800E+02  0.7818608E-02  0.1180000E+00
       11   -1    0    0    0    0  0.00000000000E+00  0.00000000000E+00  0.11999999989E+02  0.12000000000E+02  0.51109989000E-03 0. -1.
     -623   -1    0    0    0    0  0.00000000000E+00  0.00000000000E+00  0.42561509872E-11  0.25126700000E+02  0.25126700000E+02 0.  1.
      622    2    1    2    0    0  0.77960320998E-02 -0.14433798875E-01  0.90869215796E+01  0.90876972134E+01  0.11759138746E+00 0.  0.
       11    1    1    2    0    0 -0.86816571670E-02  0.14555627213E-01  0.29122533974E+01  0.29123027572E+01  0.51109989000E-03 0. -1.
     -623    1    1    2    0    0  0.88562506723E-03 -0.12182833766E-03  0.82501203813E-03  0.25126700029E+02  0.25126700000E+02 0.  1.
     -611    1    3    3    0    0  0.22494389850E-01 -0.13343304806E-01  0.88704335518E+01  0.88704777458E+01  0.10000000000E-01 0. -1.
      611    1    3    3    0    0 -0.14698357751E-01 -0.10904940693E-02  0.21648802779E+00  0.21721946753E+00  0.10000000000E-01 0. -1.
</event>
<event>
 7   0  0.6206631E-02  0.9118800E+02  0.7818608E-02  0.1180000E+00
       11   -1    0    0    0    0  0.00000000000E+00  0.00000000000E+00  0.11999999989E+02  0.12000000000E+02  0.51109989000E-03 0. -1.
     -623   -1    0    0    0    0  0.00000000000E+00  0.00000000000E+00  0.42561509872E-11  0.25126700000E+02  0.25126700000E+02 0. -1.
      622    2    1    2    0    0 -0.23664233640E-02  0.32553565858E-02  0.11987361338E+02  0.11987874625E+02  0.11086024016E+00 0.  0.
       11    1    1    2    0    0  0.12854998876E-03 -0.34338489790E-02  0.11616914998E-01  0.12125253858E-01  0.51109989000E-03 0. -1.
     -623    1    1    2    0    0  0.22378733752E-02  0.17849239316E-03  0.10217365947E-02  0.25126700121E+02  0.25126700000E+02 0. -1.
     -611    1    3    3    0    0  0.46925804628E-01 -0.71428500250E-02  0.84636484267E+01  0.84637874348E+01  0.10000000000E-01 0. -1.
      611    1    3    3    0    0 -0.49292227992E-01  0.10398206611E-01  0.35237129108E+01  0.35240871903E+01  0.10000000000E-01 0. -1.
</event>
<event>
 7   0  0.6206631E-02  0.9118800E+02  0.7818608E-02  0.1180000E+00
       11   -1    0    0    0    0  0.00000000000E+00  0.00000000000E+00  0.11999999989E+02  0.12000000000E+02  0.51109989000E-03 0. -1.
     -623   -1    0    0    0    0  0.00000000000E+00  0.00000000000E+00  0.42561509872E-11  0.25126700000E+02  0.25126700000E+02 0. -1.
      622    2    1    2    0    0 -0.20867070769E-01 -0.11708347415E-01  0.11537286356E+02  0.11537694369E+02  0.94033920242E-01 0.  0.
       11    1    1    2    0    0  0.19820057451E-01  0.13145973966E-01  0.46169308681E+00  0.46230554717E+00  0.51109989000E-03 0. -1.
     -623    1    1    2    0    0  0.10470133175E-02 -0.14376265517E-02  0.10205464059E-02  0.25126700084E+02  0.25126700000E+02 0. -1.
     -611    1    3    3    0    0 -0.56817223369E-01  0.73524078226E-03  0.68580340950E+01  0.68582767796E+01  0.10000000000E-01 0. -1.
      611    1    3    3    0    0  0.35950152601E-01 -0.12443588197E-01  0.46792522609E+01  0.46794175896E+01  0.10000000000E-01 0.  1.
</event>
<event>
 7   0  0.6206631E-02  0.9118800E+02  0.7818608E-02  0.1180000E+00
       11   -1    0    0    0    0  0.00000000000E+00  0.00000000000E+00  0.11999999989E+02  0.12000000000E+02  0.51109989000E-03 0. -1.
     -623   -1    0    0    0    0  0.00000000000E+00  0.00000000000E+00  0.42561509872E-11  0.25126700000E+02  0.25126700000E+02 0.  1.
      622    2    1    2    0    0 -0.39264847855E-01  0.51761969727E-01  0.11003162511E+02  0.11003962201E+02  0.11566264392E+00 0.  0.
       11    1    1    2    0    0  0.19208975584E-01  0.31405948669E-01  0.99521128338E+00  0.99589210165E+00  0.51109989000E-03 0. -1.
     -623    1    1    2    0    0  0.20055872271E-01 -0.83167918396E-01  0.16261942588E-02  0.25126845697E+02  0.25126700000E+02 0.  1.
     -611    1    3    3    0    0 -0.26044491344E-01  0.37920887732E-01  0.14288704537E+01  0.14296457892E+01  0.10000000000E-01 0.  1.
      611    1    3    3    0    0 -0.13220356511E-01  0.13841081996E-01  0.95742920578E+01  0.95743164122E+01  0.10000000000E-01 0. -1.
</event>
<event>
 7   0  0.6206631E-02  0.9118800E+02  0.7818608E-02  0.1180000E+00
       11   -1    0    0    0    0  0.00000000000E+00  0.00000000000E+00  0.11999999989E+02  0.12000000000E+02  0.51109989000E-03 0.  1.
     -623   -1    0    0    0    0  0.00000000000E+00  0.00000000000E+00  0.42561509872E-11  0.25126700000E+02  0.25126700000E+02 0. -1.
      622    2    1    2    0    0  0.58353839283E-02  0.10670813220E-01  0.11943609572E+02  0.11943949714E+02  0.89315410520E-01 0.  0.
       11    1    1    2    0    0 -0.26045354107E-02  0.93383012365E-02  0.55194803915E-01  0.56042083089E-01  0.51109989000E-03 0.  1.
     -623    1    1    2    0    0 -0.32308485176E-02 -0.20009114456E-01  0.11956133005E-02  0.25126708203E+02  0.25126700000E+02 0. -1.
     -611    1    3    3    0    0 -0.37321456792E-01 -0.13614844035E-02  0.75821160003E+01  0.75822145701E+01  0.10000000000E-01 0.  1.
      611    1    3    3    0    0  0.43156840720E-01  0.12032297623E-01  0.43614935717E+01  0.43617351438E+01  0.10000000000E-01 0. -1.
</event>
<event>
 7   0  0.6206631E-02  0.9118800E+02  0.7818608E-02  0.1180000E+00
       11   -1    0    0    0    0  0.00000000000E+00  0.00000000000E+00  0.11999999989E+02  0.12000000000E+02  0.51109989000E-03 0. -1.
     -623   -1    0    0    0    0  0.00000000000E+00  0.00000000000E+00  0.42561509872E-11  0.25126700000E+02  0.25126700000E+02 0. -1.
      622    2    1    2    0    0  0.96256350366E-01  0.66551423075E-01  0.10396997236E+02  0.10397879199E+02  0.68161161822E-01 0.  0.
       11    1    1    2    0    0 -0.90543782032E-01 -0.12825024278E-01  0.15994502834E+01  0.16020624607E+01  0.51109989000E-03 0. -1.
     -623    1    1    2    0    0 -0.57125683350E-02 -0.53726398797E-01  0.35524697257E-02  0.25126758340E+02  0.25126700000E+02 0. -1.
     -611    1    3    3    0    0  0.57585272123E-01  0.14282862599E-01  0.30890811689E+01  0.30896670584E+01  0.10000000000E-01 0.  1.
      611    1    3    3    0    0  0.38671078244E-01  0.52268560476E-01  0.73079160670E+01  0.73082121409E+01  0.10000000000E-01 0. -1.
</event>
<event>
 7   0  0.6206631E-02  0.9118800E+02  0.7818608E-02  0.1180000E+00
       11   -1    0    0    0    0  0.00000000000E+00  0.00000000000E+00  0.11999999989E+02  0.12000000000E+02  0.51109989000E-03 0. -1.
     -623   -1    0    0    0    0  0.00000000000E+00  0.00000000000E+00  0.42561509872E-11  0.25126700000E+02  0.25126700000E+02 0.  1.
      622    2    1    2    0    0 -0.33961434634E-01  0.16444667057E-01  0.93720157575E+01  0.93726881912E+01  0.10573913319E+00 0.  0.
       11    1    1    2    0    0  0.36631738317E-01 -0.14907052516E-01  0.26270138720E+01  0.26273116011E+01  0.51109989000E-03 0. -1.
     -623    1    1    2    0    0 -0.26703036835E-02 -0.15376145408E-02  0.97035960110E-03  0.25126700208E+02  0.25126700000E+02 0.  1.
     -611    1    3    3    0    0 -0.15940316077E-01  0.32248350008E-01  0.88038299138E+01  0.88039090864E+01  0.10000000000E-01 0. -1.
      611    1    3    3    0    0 -0.18021118557E-01 -0.15803682951E-01  0.56818584373E+00  0.56877910486E+00  0.10000000000E-01 0.  1.
</event>
<event>
 7   0  0.6206631E-02  0.9118800E+02  0.7818608E-02  0.1180000E+00
       11   -1    0    0    0    0  0.00000000000E+00  0.00000000000E+00  0.11999999989E+02  0.12000000000E+02  0.51109989000E-03 0.  1.
     -623   -1    0    0    0    0  0.00000000000E+00  0.00000000000E+00  0.42561509872E-11  0.25126700000E+02  0.25126700000E+02 0.  1.
      622    2    1    2    0    0 -0.28321459967E-01  0.43684506631E-01  0.11583142168E+02  0.11583739783E+02  0.10551981439E+00 0.  0.
       11    1    1    2    0    0  0.29952425219E-01 -0.42107959834E-01  0.41303964996E+00  0.41625982477E+00  0.51109989000E-03 0.  1.
     -623    1    1    2    0    0 -0.16309652510E-02 -0.15765467977E-02  0.38181712631E-02  0.25126700392E+02  0.25126700000E+02 0.  1.
     -611    1    3    3    0    0 -0.22441671773E-01  0.53960673772E-01  0.11311817648E+02  0.11311973032E+02  0.10000000000E-01 0.  1.
      611    1    3    3    0    0 -0.58797881945E-02 -0.10276167141E-01  0.27132452032E+00  0.27176675081E+00  0.10000000000E-01 0.  1.
</event>
<event>
 7   0  0.6206631E-02  0.9118800E+02  0.7818608E-02  0.1180000E+00
       11   -1    0    0    0    0  0.00000000000E+00  0.00000000000E+00  0.11999999989E+02  0.12000000000E+02  0.51109989000E-03 0.  1.
     -623   -1    0    0    0    0  0.00000000000E+00  0.00000000000E+00  0.42561509872E-11  0.25126700000E+02  0.25126700000E+02 0. -1.
      622    2    1    2    0    0 -0.42584343807E-03 -0.33624342778E-02  0.11979377178E+02  0.11979605465E+02  0.73878512053E-01 0.  0.
       11    1    1    2    0    0 -0.53364257016E-02 -0.48992537071E-02  0.19055481584E-01  0.20392467425E-01  0.51109989000E-03 0.  1.
     -623    1    1    2    0    0  0.57622691396E-02  0.82616879849E-02  0.15673296954E-02  0.25126702068E+02  0.25126700000E+02 0. -1.
     -611    1    3    3    0    0 -0.72560114499E-02 -0.32517830096E-01  0.35810625796E+01  0.35812315282E+01  0.10000000000E-01 0.  1.
      611    1    3    3    0    0  0.68301680119E-02  0.29155395818E-01  0.83983145981E+01  0.83983739365E+01  0.10000000000E-01 0.  1.
</event>
<event>
 7   0  0.6206631E-02  0.9118800E+02  0.7818608E-02  0.1180000E+00
       11   -1    0    0    0    0  0.00000000000E+00  0.00000000000E+00  0.11999999989E+02  0.12000000000E+02  0.51109989000E-03 0. -1.
     -623   -1    0    0    0    0  0.00000000000E+00  0.00000000000E+00  0.42561509872E-11  0.25126700000E+02  0.25126700000E+02 0. -1.
      622    2    1    2    0    0  0.18471939833E-01  0.44174048081E-01  0.75160076454E+01  0.75168420825E+01  0.10124923910E+00 0.  0.
       11    1    1    2    0    0 -0.58304472601E-02 -0.44559499975E-01  0.44829294404E+01  0.44831547120E+01  0.51109989000E-03 0. -1.
     -623    1    1    2    0    0 -0.12641492573E-01  0.38545189342E-03  0.10629033143E-02  0.25126703205E+02  0.25126700000E+02 0. -1.
     -611    1    3    3    0    0  0.43956854246E-01 -0.88502531454E-02  0.20820405032E+01  0.20825472837E+01  0.10000000000E-01 0.  1.
      611    1    3    3    0    0 -0.25484914413E-01  0.53024301227E-01  0.54339671422E+01  0.54342947988E+01  0.10000000000E-01 0. -1.
</event>
<event>
 6   0  0.6206631E-02  0.9118800E+02  0.7818608E-02  0.1180000E+00
       11   -1    0    0    0    0  0.00000000000E+00  0.00000000000E+00  0.11999999989E+02  0.12000000000E+02  0.51109989000E-03 0. -1.
     -623   -1    0    0    0    0  0.00000000000E+00  0.00000000000E+00  0.42561509872E-11  0.25126700000E+02  0.25126700000E+02 0.  1.
       11    1    1    2    0    0 -0.77132546463E-02  0.61802110335E-01  0.17089307431E+00  0.18188924984E+00  0.51109989000E-03 0. -1.
     -623    1    1    2    0    0 -0.32574493586E-01 -0.83151787664E-01  0.15883222212E-01  0.25126863722E+02  0.25126700000E+02 0.  1.
     -611    1    1    2    0    0 -0.76714246825E-01 -0.47694817896E-01  0.10680331115E+01  0.10718929977E+01  0.10000000000E-01 0.  1.
      611    1    1    2    0    0  0.11700199506E+00  0.69044495225E-01  0.10745190581E+02  0.10746054031E+02  0.10000000000E-01 0. -1.
</event>
<event>
 7   0  0.6206631E-02  0.9118800E+02  0.7818608E-02  0.1180000E+00
       11   -1    0    0    0    0  0.00000000000E+00  0.00000000000E+00  0.11999999989E+02  0.12000000000E+02  0.51109989000E-03 0.  1.
     -623   -1    0    0    0    0  0.00000000000E+00  0.00000000000E+00  0.42561509872E-11  0.25126700000E+02  0.25126700000E+02 0. -1.
      622    2    1    2    0    0  0.69733598865E-02  0.22110172454E-01  0.11640197683E+02  0.11640645198E+02  0.99403340281E-01 0.  0.
       11    1    1    2    0    0  0.13148710405E-02 -0.16766319486E-01  0.35895873493E+00  0.35935285300E+00  0.51109989000E-03 0.  1.
     -623    1    1    2    0    0 -0.82882309270E-02 -0.53438529675E-02  0.84357093666E-03  0.25126701949E+02  0.25126700000E+02 0. -1.
     -611    1    3    3    0    0  0.24967248550E-01 -0.31957765852E-01  0.61760511541E+01  0.61761923966E+01  0.10000000000E-01 0. -1.
      611    1    3    3    0    0 -0.17993888664E-01  0.54067938306E-01  0.54641465291E+01  0.54644528010E+01  0.10000000000E-01 0.  1.
</event>
<event>
 7   0  0.6206631E-02  0.9118800E+02  0.7818608E-02  0.1180000E+00
       11   -1    0    0    0    0  0.00000000000E+00  0.00000000000E+00  0.11999999989E+02  0.12000000000E+02  0.51109989000E-03 0.  1.
     -623   -1    0    0    0    0  0.00000000000E+00  0.00000000000E+00  0.42561509872E-11  0.25126700000E+02  0.25126700000E+02 0.  1.
      622    2    1    2    0    0 -0.19237118383E-02  0.50648063965E-03  0.11996190474E+02  0.11996493091E+02  0.85185963834E-01 0.  0.
       11    1    1    2    0    0  0.36678349073E-04  0.48369034283E-03  0.34352920723E-02  0.35068157069E-02  0.51109989000E-03 0.  1.
     -623    1    1    2    0    0  0.18870334893E-02 -0.99017098248E-03  0.37422339770E-03  0.25126700093E+02  0.25126700000E+02 0.  1.
     -611    1    3    3    0    0  0.32704660220E-01  0.16622290368E-02  0.25036511013E+01  0.25038852200E+01  0.10000000000E-01 0. -1.
      611    1    3    3    0    0 -0.34628372058E-01 -0.11557483971E-02  0.94925393723E+01  0.94926078711E+01  0.10000000000E-01 0.  1.
</event>
<event>
 7   0  0.6206631E-02  0.9118800E+02  0.7818608E-02  0.1180000E+00
       11   -1    0    0    0    0  0.00000000000E+00  0.00000000000E+00  0.11999999989E+02  0.12000000000E+02  0.51109989000E-03 0.  1.
     -623   -1    0    0    0    0  0.00000000000E+00  0.00000000000E+00  0.42561509872E-11  0.25126700000E+02  0.25126700000E+02 0.  1.
      622    2    1    2    0    0 -0.14503299607E-01  0.62066855135E-02  0.11787345048E+02  0.11787782385E+02  0.10030653918E+00 0.  0.
       11    1    1    2    0    0 -0.27178290178E-02  0.67307866843E-02  0.21208357701E+00  0.21220837623E+00  0.51109989000E-03 0.  1.
     -623    1    1    2    0    0  0.17221128625E-01 -0.12937472198E-01  0.57136374602E-03  0.25126709239E+02  0.25126700000E+02 0.  1.
     -611    1    3    3    0    0  0.73397544256E-02  0.33468534459E-01  0.17130873584E+01  0.17134591657E+01  0.10000000000E-01 0. -1.
      611    1    3    3    0    0 -0.21843054032E-01 -0.27261848945E-01  0.10074257690E+02  0.10074323219E+02  0.10000000000E-01 0.  1.
</event>
<event>
 7   0  0.6206631E-02  0.9118800E+02  0.7818608E-02  0.1180000E+00
       11   -1    0    0    0    0  0.00000000000E+00  0.00000000000E+00  0.11999999989E+02  0.12000000000E+02  0.51109989000E-03 0.  1.
     -623   -1    0    0    0    0  0.00000000000E+00  0.00000000000E+00  0.42561509872E-11  0.25126700000E+02  0.25126700000E+02 0. -1.
      622    2    1    2    0    0 -0.36080622480E-04 -0.26054364711E-02  0.11995803314E+02  0.11996401764E+02  0.11979709260E+00 0.  0.
       11    1    1    2    0    0 -0.25483964338E-02 -0.23775040197E-02 -0.72886479623E-03  0.35971261805E-02  0.51109989000E-03 0.  1.
     -623    1    1    2    0    0  0.25844770563E-02  0.49829404909E-02  0.49255397866E-02  0.25126701110E+02  0.25126700000E+02 0. -1.
     -611    1    3    3    0    0 -0.51670097972E-01 -0.19089385101E-01  0.82850916329E+01  0.82852807779E+01  0.10000000000E-01 0. -1.
      611    1    3    3    0    0  0.51634017349E-01  0.16483948630E-01  0.37107116812E+01  0.37111209861E+01  0.10000000000E-01 0.  1.
</event>
<event>
 7   0  0.6206631E-02  0.9118800E+02  0.7818608E-02  0.1180000E+00
       11   -1    0    0    0    0  0.00000000000E+00  0.00000000000E+00  0.11999999989E+02  0.12000000000E+02  0.51109989000E-03 0.  1.
     -623   -1    0    0    0    0  0.00000000000E+00  0.00000000000E+00  0.42561509872E-11  0.25126700000E+02  0.25126700000E+02 0. -1.
      622    2    1    2    0    0 -0.22140363484E-01 -0.23476911207E-01  0.59806428594E+01  0.59812625806E+01  0.79822841688E-01 0.  0.
       11    1    1    2    0    0  0.25078255623E-01  0.23165868193E-01  0.60186403840E+01  0.60187372355E+01  0.51109989000E-03 0.  1.
     -623    1    1    2    0    0 -0.29378921385E-02  0.31104301412E-03  0.71674573987E-03  0.25126700184E+02  0.25126700000E+02 0. -1.
     -611    1    3    3    0    0 -0.37886691904E-01 -0.40636389809E-01  0.31461522571E+01  0.31466586632E+01  0.10000000000E-01 0. -1.
      611    1    3    3    0    0  0.15746328420E-01  0.17159478603E-01  0.28344906023E+01  0.28346039175E+01  0.10000000000E-01 0.  1.
</event>
<event>
 7   0  0.6206631E-02  0.9118800E+02  0.7818608E-02  0.1180000E+00
       11   -1    0    0    0    0  0.00000000000E+00  0.00000000000E+00  0.11999999989E+02  0.12000000000E+02  0.51109989000E-03 0. -1.
     -623   -1    0    0    0    0  0.00000000000E+00  0.00000000000E+00  0.42561509872E-11  0.25126700000E+02  0.25126700000E+02 0.  1.
      622    2    1    2    0    0 -0.18321137691E-01  0.65417675281E-02  0.11839994690E+02  0.11840230135E+02  0.72089740216E-01 0.  0.
       11    1    1    2    0    0  0.24065648591E-01  0.18710413693E-02  0.15793291294E+00  0.15976771404E+00  0.51109989000E-03 0. -1.
     -623    1    1    2    0    0 -0.57445109004E-02 -0.84128088974E-02  0.20723856700E-02  0.25126702150E+02  0.25126700000E+02 0.  1.
     -611    1    3    3    0    0 -0.62477004202E-02 -0.80882773705E-02  0.10822835156E+02  0.10822844602E+02  0.10000000000E-01 0. -1.
      611    1    3    3    0    0 -0.12073437270E-01  0.14630044899E-01  0.10171595343E+01  0.10173855338E+01  0.10000000000E-01 0. -1.
</event>
<event>
 7   0  0.6206631E-02  0.9118800E+02  0.7818608E-02  0.1180000E+00
       11   -1    0    0    0    0  0.00000000000E+00  0.00000000000E+00  0.11999999989E+02  0.12000000000E+02  0.51109989000E-03 0. -1.
     -623   -1    0    0    0    0  0.00000000000E+00  0.00000000000E+00  0.42561509872E-11  0.25126700000E+02  0.25126700000E+02 0. -1.
      622    2    1    2    0    0 -0.14777829022E-02  0.13761766280E-02  0.11986835016E+02  0.11987111410E+02  0.81376804592E-01 0.  0.
       11    1    1    2    0    0 -0.12521526346E-02 -0.18069027031E-02  0.12689274976E-01  0.12888433037E-01  0.51109989000E-03 0. -1.
     -623    1    1    2    0    0  0.27299355368E-02  0.43072607506E-03  0.47569797083E-03  0.25126700156E+02  0.25126700000E+02 0. -1.
     -611    1    3    3    0    0  0.65176322028E-02  0.34483037538E-01  0.88559979164E+01  0.88560730944E+01  0.10000000000E-01 0. -1.
      611    1    3    3    0    0 -0.79954151050E-02 -0.33106860910E-01  0.31308370998E+01  0.31310383160E+01  0.10000000000E-01 0. -1.
</event>
<event>
 7   0  0.6206631E-02  0.9118800E+02  0.7818608E-02  0.1180000E+00
       11   -1    0    0    0    0  0.00000000000E+00  0.00000000000E+00  0.11999999989E+02  0.12000000000E+02  0.51109989000E-03 0.  1.
     -623   -1    0    0    0    0  0.00000000000E+00  0.00000000000E+00  0.42561509872E-11  0.25126700000E+02  0.25126700000E+02 0. -1.
      622    2    1    2    0    0 -0.12267598415E-01  0.81777954646E-02  0.11466585955E+02  0.11467388963E+02  0.13490288932E+00 0.  0.
       11    1    1    2    0    0 -0.94861445906E-03 -0.11517180361E-01  0.53248169249E+00  0.53260732193E+00  0.51109989000E-03 0.  1.
     -623    1    1    2    0    0  0.13216212874E-01  0.33393848964E-02  0.93234127385E-03  0.25126703715E+02  0.25126700000E+02 0. -1.
     -611    1    3    3    0    0 -0.48038503512E-01  0.56301053429E-01  0.59847144638E+01  0.59851804250E+01  0.10000000000E-01 0. -1.
      611    1    3    3    0    0  0.35770905097E-01 -0.48123257964E-01  0.54818714915E+01  0.54822085381E+01  0.10000000000E-01 0.  1.
</event>
<event>
 7   0  0.6206631E-02  0.9118800E+02  0.7818608E-02  0.1180000E+00
       11   -1    0    0    0    0  0.00000000000E+00  0.00000000000E+00  0.11999999989E+02  0.12000000000E+02  0.51109989000E-03 0. -1.
     -623   -1    0    0    0    0  0.00000000000E+00  0.00000000000E+00  0.42561509872E-11  0.25126700000E+02  0.25126700000E+02 0.  1.
      622    2    1    2    0    0  0.69707810299E-02  0.28724483808E-02  0.11755425513E+02  0.11755880147E+02  0.10311257864E+00 0.  0.
       11    1    1    2    0    0 -0.67270628579E-02 -0.48084870714E-02  0.24397915091E+00  0.24411977025E+00  0.51109989000E-03 0. -1.
     -623    1    1    2    0    0 -0.24371817197E-03  0.19360386906E-02  0.59532560323E-03  0.25126700083E+02  0.25126700000E+02 0.  1.
     -611    1    3    3    0    0 -0.12157428567E-01  0.34099377087E-01  0.18464825906E+01  0.18468645126E+01  0.10000000000E-01 0.  1.
      611    1    3    3    0    0  0.19128209597E-01 -0.31226928706E-01  0.99089429220E+01  0.99090156343E+01  0.10000000000E-01 0. -1.
</event>
<event>
 7   0  0.6206631E-02  0.9118800E+02  0.7818608E-02  0.1180000E+00
       11   -1    0    0    0    0  0.00000000000E+00  0.00000000000E+00  0.11999999989E+02  0.12000000000E+02  0.51109989000E-03 0.  1.
     -623   -1    0    0    0    0  0.00000000000E+00  0.00000000000E+00  0.42561509872E-11  0.25126700000E+02  0.25126700000E+02 0.  1.
      622    2    1    2    0    0  0.61026249479E-02  0.36426801126E-01  0.99742231677E+01  0.99749374305E+01  0.11351118463E+00 0.  0.
       11    1    1    2    0    0  0.16640938046E-01 -0.35696172868E-01  0.20246691534E+01  0.20250522412E+01  0.51109989000E-03 0.  1.
     -623    1    1    2    0    0 -0.22743562993E-01 -0.73062825825E-03  0.11076679475E-02  0.25126710328E+02  0.25126700000E+02 0.  1.
     -611    1    3    3    0    0 -0.38172204200E-01  0.13832029460E-01  0.15564810135E+01  0.15570425773E+01  0.10000000000E-01 0. -1.
      611    1    3    3    0    0  0.44274829148E-01  0.22594771666E-01  0.84177421542E+01  0.84178948532E+01  0.10000000000E-01 0.  1.
</event>
<event>
 7   0  0.6206631E-02  0.9118800E+02  0.7818608E-02  0.1180000E+00
       11   -1    0    0    0    0  0.00000000000E+00  0.00000000000E+00  0.11999999989E+02  0.12000000000E+02  0.51109989000E-03 0.  1.
     -623   -1    0    0    0    0  0.00000000000E+00  0.00000000000E+00  0.42561509872E-11  0.25126700000E+02  0.25126700000E+02 0.  1.
      622    2    1    2    0    0  0.13820442222E-01  0.20854634597E-01  0.93613020944E+01  0.93618250530E+01  0.95736617741E-01 0.  0.
       11    1    1    2    0    0 -0.13329996819E-01 -0.38321398805E-01  0.26378567889E+01  0.26381688571E+01  0.51109989000E-03 0.  1.
     -623    1    1    2    0    0 -0.49044540309E-03  0.17466764208E-01  0.84110573957E-03  0.25126706090E+02  0.25126700000E+02 0.  1.
     -611    1    3    3    0    0  0.38692484970E-01  0.26303668134E-01  0.24405979766E+01  0.24410668723E+01  0.10000000000E-01 0.  1.
      611    1    3    3    0    0 -0.24872042748E-01 -0.54490335380E-02  0.69207041178E+01  0.69207581808E+01  0.10000000000E-01 0. -1.
</event>
<event>
 7   0  0.6206631E-02  0.9118800E+02  0.7818608E-02  0.1180000E+00
       11   -1    0    0    0    0  0.00000000000E+00  0.00000000000E+00  0.11999999989E+02  0.12000000000E+02  0.51109989000E-03 0. -1.
     -623   -1    0    0    0    0  0.00000000000E+00  0.00000000000E+00  0.42561509872E-11  0.25126700000E+02  0.25126700000E+02 0.  1.
      622    2    1    2    0    0  0.35401412228E-02 -0.71414165589E-02  0.11960330686E+02  0.11960481639E+02  0.59560020986E-01 0.  0.
       11    1    1    2    0    0 -0.95705109354E-02  0.19544969806E-02  0.38287365786E-01  0.39517063909E-01  0.51109989000E-03 0. -1.
     -623    1    1    2    0    0  0.60303697126E-02  0.51869195784E-02  0.13819376785E-02  0.25126701297E+02  0.25126700000E+02 0.  1.
     -611    1    3    3    0    0 -0.86711052880E-02 -0.13737794027E-01  0.10870251227E+02  0.10870267966E+02  0.10000000000E-01 0. -1.
      611    1    3    3    0    0  0.12211246511E-01  0.65963774684E-02  0.10900794587E+01  0.10902136731E+01  0.10000000000E-01 0. -1.
</event>
<event>
 7   0  0.6206631E-02  0.9118800E+02  0.7818608E-02  0.1180000E+00
       11   -1    0    0    0    0  0.00000000000E+00  0.00000000000E+00  0.11999999989E+02  0.12000000000E+02  0.51109989000E-03 0.  1.
     -623   -1    0    0    0    0  0.00000000000E+00  0.00000000000E+00  0.42561509872E-11  0.25126700000E+02  0.25126700000E+02 0.  1.
      622    2    1    2    0    0 -0.65873493569E-02  0.68662075510E-02  0.11347143027E+02  0.11347545354E+02  0.95079734075E-01 0.  0.
       11    1    1    2    0    0  0.61739917490E-02 -0.69044633350E-02  0.65238869046E+00  0.65245463785E+00  0.51109989000E-03 0.  1.
     -623    1    1    2    0    0  0.41335760796E-03  0.38255784012E-04  0.46827165095E-03  0.25126700008E+02  0.25126700000E+02 0.  1.
     -611    1    3    3    0    0  0.22449030332E-01 -0.21717805036E-01  0.17301712992E+01  0.17304821139E+01  0.10000000000E-01 0.  1.
      611    1    3    3    0    0 -0.29036379689E-01  0.28584012587E-01  0.96169717278E+01  0.96170632404E+01  0.10000000000E-01 0. -1.
</event>
<event>
 7   0  0.6206631E-02  0.9118800E+02  0.7818608E-02  0.1180000E+00
       11   -1    0    0    0    0  0.00000000000E+00  0.00000000000E+00  0.11999999989E+02  0.12000000000E+02  0.51109989000E-03 0.  1.
     -623   -1    0    0    0    0  0.00000000000E+00  0.00000000000E+00  0.42561509872E-11  0.25126700000E+02  0.25126700000E+02 0.  1.
      622    2    1    2    0    0  0.52069073399E-03 -0.40308529883E-02  0.11320337337E+02  0.11320865500E+02  0.10927823896E+00 0.  0.
       11    1    1    2    0    0 -0.83699460869E-03  0.28635895841E-02  0.67912771954E+00  0.67913446487E+00  0.51109989000E-03 0.  1.
     -623    1    1    2    0    0  0.31630387470E-03  0.11672634043E-02  0.53493254888E-03  0.25126700035E+02  0.25126700000E+02 0.  1.
     -611    1    3    3    0    0  0.34985017902E-02 -0.22948562319E-01  0.63063368544E+00  0.63114001714E+00  0.10000000000E-01 0. -1.
      611    1    3    3    0    0 -0.29778110562E-02  0.18917709330E-01  0.10689703652E+02  0.10689725483E+02  0.10000000000E-01 0.  1.
</event>
<event>
 7   0  0.6206631E-02  0.9118800E+02  0.7818608E-02  0.1180000E+00
       11   -1    0    0    0    0  0.00000000000E+00  0.00000000000E+00  0.11999999989E+02  0.12000000000E+02  0.51109989000E-03 0.  1.
     -623   -1    0    0    0    0  0.00000000000E+00  0.00000000000E+00  0.42561509872E-11  0.25126700000E+02  0.25126700000E+02 0.  1.
      622    2    1    2    0    0 -0.44320939439E-02 -0.36718567618E-02  0.11972249394E+02  0.11973207319E+02  0.15134337982E+00 0.  0.
       11    1    1    2    0    0  0.35831014908E-02  0.13760375230E-01  0.22699416055E-01  0.26790133542E-01  0.51109989000E-03 0.  1.
     -623    1    1    2    0    0  0.84899245315E-03 -0.10088518468E-01  0.50511786710E-02  0.25126702547E+02  0.25126700000E+02 0.  1.
     -611    1    3    3    0    0 -0.49125952300E-01 -0.14609773720E-01  0.16016396366E+01  0.16024906647E+01  0.10000000000E-01 0. -1.
      611    1    3    3    0    0  0.44693858356E-01  0.10937916959E-01  0.10370609758E+02  0.10370716654E+02  0.10000000000E-01 0.  1.
</event>
<event>
 7   0  0.6206631E-02  0.9118800E+02  0.7818608E-02  0.1180000E+00
       11   -1    0    0    0    0  0.00000000000E+00  0.00000000000E+00  0.11999999989E+02  0.12000000000E+02  0.51109989000E-03 0.  1.
     -623   -1    0    0    0    0  0.00000000000E+00  0.00000000000E+00  0.42561509872E-11  0.25126700000E+02  0.25126700000E+02 0. -1.
      622    2    1    2    0    0 -0.46299909213E-03 -0.78718798810E-03  0.11990272204E+02  0.11990531763E+02  0.78889792680E-01 0.  0.
       11    1    1    2    0    0  0.33563714321E-03  0.51636117074E-03  0.94343484977E-02  0.94682329855E-02  0.51109989000E-03 0.  1.
     -623    1    1    2    0    0  0.12736194892E-03  0.27082681736E-03  0.29343610039E-03  0.25126700003E+02  0.25126700000E+02 0. -1.
     -611    1    3    3    0    0 -0.73205852531E-02 -0.37664828420E-01  0.54374410825E+01  0.54375856551E+01  0.10000000000E-01 0.  1.
      611    1    3    3    0    0  0.68575861610E-02  0.36877640432E-01  0.65528311219E+01  0.65529461084E+01  0.10000000000E-01 0.  1.
</event>
<event>
 7   0  0.6206631E-02  0.9118800E+02  0.7818608E-02  0.1180000E+00
       11   -1    0    0    0    0  0.00000000000E+00  0.00000000000E+00  0.11999999989E+02  0.12000000000E+02  0.51109989000E-03 0.  1.
     -623   -1    0    0    0    0  0.00000000000E+00  0.00000000000E+00  0.42561509872E-11  0.25126700000E+02  0.25126700000E+02 0.  1.
      622    2    1    2    0    0 -0.99007417793E-02 -0.15682261256E-01  0.11749329758E+02  0.11749772698E+02  0.10032306405E+00 0.  0.
       11    1    1    2    0    0  0.13218390701E-01  0.12699650916E-01  0.24955405024E+00  0.25022688145E+00  0.51109989000E-03 0.  1.
     -623    1    1    2    0    0 -0.33176489216E-02  0.29826103396E-02  0.11161804356E-02  0.25126700421E+02  0.25126700000E+02 0.  1.
     -611    1    3    3    0    0 -0.30806171496E-01 -0.55117252137E-02  0.10935888212E+02  0.10935937563E+02  0.10000000000E-01 0.  1.
      611    1    3    3    0    0  0.20905429717E-01 -0.10170536042E-01  0.81344154638E+00  0.81383513451E+00  0.10000000000E-01 0. -1.
</event>
<event>
 7   0  0.6206631E-02  0.9118800E+02  0.7818608E-02  0.1180000E+00
       11   -1    0    0    0    0  0.00000000000E+00  0.00000000000E+00  0.11999999989E+02  0.12000000000E+02  0.51109989000E-03 0. -1.
     -623   -1    0    0    0    0  0.00000000000E+00  0.00000000000E+00  0.42561509872E-11  0.25126700000E+02  0.25126700000E+02 0.  1.
      622    2    1    2    0    0  0.96850482370E-03 -0.25559435462E-04  0.11993964695E+02  0.11994411896E+02  0.10356979645E+00 0.  0.
       11    1    1    2    0    0 -0.30777561807E-03 -0.64653303127E-04  0.55557740574E-02  0.55880904072E-02  0.51109989000E-03 0. -1.
     -623    1    1    2    0    0 -0.66072920563E-03  0.90212738589E-04  0.47952053623E-03  0.25126700013E+02  0.25126700000E+02 0.  1.
     -611    1    3    3    0    0 -0.43408343546E-01  0.31642520484E-02  0.30078482714E+01  0.30081797687E+01  0.10000000000E-01 0.  1.
      611    1    3    3    0    0  0.44376848369E-01 -0.31898114839E-02  0.89861164231E+01  0.89862321275E+01  0.10000000000E-01 0. -1.
</event>
<event>
 7   0  0.6206631E-02  0.9118800E+02  0.7818608E-02  0.1180000E+00
       11   -1    0    0    0    0  0.00000000000E+00  0.00000000000E+00  0.11999999989E+02  0.12000000000E+02  0.51109989000E-03 0.  1.
     -623   -1    0    0    0    0  0.00000000000E+00  0.00000000000E+00  0.42561509872E-11  0.25126700000E+02  0.25126700000E+02 0.  1.
      622    2    1    2    0    0 -0.35619236788E-02  0.25692905091E-02  0.11979874129E+02  0.11980238136E+02  0.93286454366E-01 0.  0.
       11    1    1    2    0    0  0.31174077791E-02 -0.86234673705E-03  0.19488596516E-01  0.19761793706E-01  0.51109989000E-03 0.  1.
     -623    1    1    2    0    0  0.44451589975E-03 -0.17069437721E-02  0.63726340765E-03  0.25126700070E+02  0.25126700000E+02 0.  1.
     -611    1    3    3    0    0 -0.38243046678E-02  0.33711631211E-01  0.20156704072E+01  0.20159807265E+01  0.10000000000E-01 0. -1.
      611    1    3    3    0    0  0.26238098893E-03 -0.31142340702E-01  0.99642037220E+01  0.99642574097E+01  0.10000000000E-01 0.  1.
</event>
<event>
 7   0  0.6206631E-02  0.9118800E+02  0.7818608E-02  0.1180000E+00
       11   -1    0    0    0    0  0.00000000000E+00  0.00000000000E+00  0.11999999989E+02  0.12000000000E+02  0.51109989000E-03 0.  1.
     -623   -1    0    0    0    0  0.00000000000E+00  0.00000000000E+00  0.42561509872E-11  0.25126700000E+02  0.25126700000E+02 0. -1.
      622    2    1    2    0    0  0.34528247398E-02  0.15533761898E-02  0.11845088255E+02  0.11845643958E+02  0.11467640808E+00 0.  0.
       11    1    1    2    0    0  0.47579272389E-02  0.15560712274E-02  0.15427245723E+00  0.15435449949E+00  0.51109989000E-03 0.  1.
     -623    1    1    2    0    0 -0.82107519787E-02 -0.31094474172E-02  0.63927654745E-03  0.25126701542E+02  0.25126700000E+02 0. -1.
     -611    1    3    3    0    0  0.55079831871E-01 -0.43072367273E-02  0.79210563485E+01  0.79212553308E+01  0.10000000000E-01 0.  1.
      611    1    3    3    0    0 -0.51627007131E-01  0.58606129171E-02  0.39240319069E+01  0.39243886277E+01  0.10000000000E-01 0. -1.
</event>
<event>
 7   0  0.6206631E-02  0.9118800E+02  0.7818608E-02  0.1180000E+00
       11   -1    0    0    0    0  0.00000000000E+00  0.00000000000E+00  0.11999999989E+02  0.12000000000E+02  0.51109989000E-03 0. -1.
     -623   -1    0    0    0    0  0.00000000000E+00  0.00000000000E+00  0.42561509872E-11  0.25126700000E+02  0.25126700000E+02 0. -1.
      622    2    1    2    0    0  0.17676842651E-01 -0.17696060990E-01  0.11957905996E+02  0.11958323804E+02  0.96782096858E-01 0.  0.
       11    1    1    2    0    0 -0.87240635505E-02  0.10181453932E-01  0.39454209829E-01  0.41673339023E-01  0.51109989000E-03 0. -1.
     -623    1    1    2    0    0 -0.89527791008E-02  0.75146070580E-02  0.26397837790E-02  0.25126702857E+02  0.25126700000E+02 0. -1.
     -611    1    3    3    0    0 -0.67029532170E-02 -0.40543543930E-01  0.10111481767E+02  0.10111570216E+02  0.10000000000E-01 0. -1.
      611    1    3    3    0    0  0.24379795868E-01  0.22847482940E-01  0.18464242288E+01  0.18467535879E+01  0.10000000000E-01 0.  1.
</event>
<event>
 7   0  0.6206631E-02  0.9118800E+02  0.7818608E-02  0.1180000E+00
       11   -1    0    0    0    0  0.00000000000E+00  0.00000000000E+00  0.11999999989E+02  0.12000000000E+02  0.51109989000E-03 0. -1.
     -623   -1    0    0    0    0  0.00000000000E+00  0.00000000000E+00  0.42561509872E-11  0.25126700000E+02  0.25126700000E+02 0.  1.
      622    2    1    2    0    0 -0.22920952335E-02  0.27136702320E-02  0.11906665395E+02  0.11907117138E+02  0.10365854122E+00 0.  0.
       11    1    1    2    0    0  0.24885018284E-02 -0.58334653939E-02  0.92664475735E-01  0.92882658479E-01  0.51109989000E-03 0. -1.
     -623    1    1    2    0    0 -0.19640659490E-03  0.31197951618E-02  0.67011830389E-03  0.25126700203E+02  0.25126700000E+02 0.  1.
     -611    1    3    3    0    0 -0.15555963268E-01 -0.17633854904E-02  0.11568106542E+02  0.11568121458E+02  0.10000000000E-01 0. -1.
      611    1    3    3    0    0  0.13263868035E-01  0.44770557224E-02  0.33855885287E+00  0.33899568003E+00  0.10000000000E-01 0.  1.
</event>
<event>
 7   0  0.6206631E-02  0.9118800E+02  0.7818608E-02  0.1180000E+00
       11   -1    0    0    0    0  0.00000000000E+00  0.00000000000E+00  0.11999999989E+02  0.12000000000E+02  0.51109989000E-03 0. -1.
     -623   -1    0    0    0    0  0.00000000000E+00  0.00000000000E+00  0.42561509872E-11  0.25126700000E+02  0.25126700000E+02 0.  1.
      622    2    1    2    0    0 -0.79346679136E-02 -0.38445499215E-01  0.85627858334E+01  0.85630443968E+01  0.53731708185E-01 0.  0.
       11    1    1    2    0    0  0.11185519807E-01  0.34198861870E-01  0.34367666403E+01  0.34369550302E+01  0.51109989000E-03 0. -1.
     -623    1    1    2    0    0 -0.32508518931E-02  0.42466373445E-02  0.44751542399E-03  0.25126700573E+02  0.25126700000E+02 0.  1.
     -611    1    3    3    0    0  0.16271869593E-01 -0.34170123278E-01  0.44079635867E+01  0.44081374017E+01  0.10000000000E-01 0.  1.
      611    1    3    3    0    0 -0.24206537507E-01 -0.42753759376E-02  0.41548222468E+01  0.41549069950E+01  0.10000000000E-01 0. -1.
</event>
<event>
 7   0  0.6206631E-02  0.9118800E+02  0.7818608E-02  0.1180000E+00
       11   -1    0    0    0    0  0.00000000000E+00  0.00000000000E+00  0.11999999989E+02  0.12000000000E+02  0.51109989000E-03 0. -1.
     -623   -1    0    0    0    0  0.00000000000E+00  0.00000000000E+00  0.42561509872E-11  0.25126700000E+02  0.25126700000E+02 0. -1.
      622    2    1    2    0    0 -0.28738392925E-02 -0.42936137495E-02  0.11985558388E+02  0.11986027476E+02  0.10591550175E+00 0.  0.
       11    1    1    2    0    0  0.16502949110E-02  0.94802624834E-03  0.13832596324E-01  0.13972264356E-01  0.51109989000E-03 0. -1.
     -623    1    1    2    0    0  0.12235443814E-02  0.33455875012E-02  0.60900523271E-03  0.25126700260E+02  0.25126700000E+02 0. -1.
     -611    1    3    3    0    0  0.14706070626E-01  0.47075590368E-01  0.63052887716E+01  0.63054895824E+01  0.10000000000E-01 0. -1.
      611    1    3    3    0    0 -0.17579909919E-01 -0.51369204118E-01  0.56802696159E+01  0.56805378934E+01  0.10000000000E-01 0.  1.
</event>
<event>
 7   0  0.6206631E-02  0.9118800E+02  0.7818608E-02  0.1180000E+00
       11   -1    0    0    0    0  0.00000000000E+00  0.00000000000E+00  0.11999999989E+02  0.12000000000E+02  0.51109989000E-03 0. -1.
     -623   -1    0    0    0    0  0.00000000000E+00  0.00000000000E+00  0.42561509872E-11  0.25126700000E+02  0.25126700000E+02 0. -1.
      622    2    1    2    0    0 -0.16849170638E-03 -0.52701171295E-03  0.11987140599E+02  0.11987506516E+02  0.93661332193E-01 0.  0.
       11    1    1    2    0    0  0.83944969302E-04  0.19874287706E-04  0.12482718623E-01  0.12493475460E-01  0.51109989000E-03 0. -1.
     -623    1    1    2    0    0  0.84546737079E-04  0.50713742525E-03  0.37667188815E-03  0.25126700008E+02  0.25126700000E+02 0. -1.
     -611    1    3    3    0    0 -0.48456156171E-02  0.72237498018E-03  0.11816200239E+02  0.11816205486E+02  0.10000000000E-01 0. -1.
      611    1    3    3    0    0  0.46771239107E-02 -0.12493866931E-02  0.17094035997E+00  0.17130103071E+00  0.10000000000E-01 0.  1.
</event>
<event>
 7   0  0.6206631E-02  0.9118800E+02  0.7818608E-02  0.1180000E+00
       11   -1    0    0    0    0  0.00000000000E+00  0.00000000000E+00  0.11999999989E+02  0.12000000000E+02  0.51109989000E-03 0. -1.
     -623   -1    0    0    0    0  0.00000000000E+00  0.00000000000E+00  0.42561509872E-11  0.25126700000E+02  0.25126700000E+02 0. -1.
      622    2    1    2    0    0  0.30667454619E-01 -0.66741510646E-02  0.11584723333E+02  0.11586180781E+02  0.18106721874E+00 0.  0.
       11    1    1    2    0    0 -0.69147583813E-02  0.81367772883E-02  0.41366978905E+00  0.41380789821E+00  0.51109989000E-03 0. -1.
     -623    1    1    2    0    0 -0.23752696238E-01 -0.14626262237E-02  0.16068665792E-02  0.25126711321E+02  0.25126700000E+02 0. -1.
     -611    1    3    3    0    0  0.69134497777E-01  0.15050324543E-01  0.18881539965E+01  0.18895056511E+01  0.10000000000E-01 0.  1.
      611    1    3    3    0    0 -0.38467043158E-01 -0.21724475607E-01  0.96965693370E+01  0.96966751298E+01  0.10000000000E-01 0. -1.
</event>
<event>
 7   0  0.6206631E-02  0.9118800E+02  0.7818608E-02  0.1180000E+00
       11   -1    0    0    0    0  0.00000000000E+00  0.00000000000E+00  0.11999999989E+02  0.12000000000E+02  0.51109989000E-03 0. -1.
     -623   -1    0    0    0    0  0.00000000000E+00  0.00000000000E+00  0.42561509872E-11  0.25126700000E+02  0.25126700000E+02 0. -1.
      622    2    1    2    0    0  0.80523131207E-02  0.19873245435E-01  0.74170245156E+01  0.74175357675E+01  0.84406226667E-01 0.  0.
       11    1    1    2    0    0 -0.10391625372E-01 -0.53042262782E-02  0.45824450134E+01  0.45824598943E+01  0.51109989000E-03 0. -1.
     -623    1    1    2    0    0  0.23393122514E-02 -0.14569019157E-01  0.53046009569E-03  0.25126704338E+02  0.25126700000E+02 0. -1.
     -611    1    3    3    0    0  0.21072858970E-01 -0.15274317176E-01  0.98567037466E+00  0.98606463157E+00  0.10000000000E-01 0.  1.
      611    1    3    3    0    0 -0.13020545849E-01  0.35147562611E-01  0.64313541410E+01  0.64314711359E+01  0.10000000000E-01 0. -1.
</event>
<event>
 7   0  0.6206631E-02  0.9118800E+02  0.7818608E-02  0.1180000E+00
       11   -1    0    0    0    0  0.00000000000E+00  0.00000000000E+00  0.11999999989E+02  0.12000000000E+02  0.51109989000E-03 0.  1.
     -623   -1    0    0    0    0  0.00000000000E+00  0.00000000000E+00  0.42561509872E-11  0.25126700000E+02  0.25126700000E+02 0. -1.
      622    2    1    2    0    0 -0.27921139042E-01 -0.15653138634E-01  0.88642794976E+01  0.88650425319E+01  0.11181891724E+00 0.  0.
       11    1    1    2    0    0  0.32826146938E-01  0.61815867305E-02  0.31347771838E+01  0.31349551865E+01  0.51109989000E-03 0.  1.
     -623    1    1    2    0    0 -0.49050078957E-02  0.94715519032E-02  0.94330773077E-03  0.25126702282E+02  0.25126700000E+02 0. -1.
     -611    1    3    3    0    0  0.11339427412E-01 -0.54219737284E-01  0.56097402727E+01  0.56100226639E+01  0.10000000000E-01 0.  1.
      611    1    3    3    0    0 -0.39260566454E-01  0.38566598651E-01  0.32545392249E+01  0.32550198680E+01  0.10000000000E-01 0. -1.
</event>
<event>
 7   0  0.6206631E-02  0.9118800E+02  0.7818608E-02  0.1180000E+00
       11   -1    0    0    0    0  0.00000000000E+00  0.00000000000E+00  0.11999999989E+02  0.12000000000E+02  0.51109989000E-03 0. -1.
     -623   -1    0    0    0    0  0.00000000000E+00  0.00000000000E+00  0.42561509872E-11  0.25126700000E+02  0.25126700000E+02 0. -1.
      622    2    1    2    0    0 -0.80536308896E-03  0.21533646941E-02  0.11997968108E+02  0.11998811085E+02  0.14220912965E+00 0.  0.
       11    1    1    2    0    0  0.10510609772E-02  0.16227473117E-03  0.14425269657E-03  0.11887363985E-02  0.51109989000E-03 0. -1.
     -623    1    1    2    0    0 -0.24569788828E-03 -0.23156394252E-02  0.18876281799E-02  0.25126700179E+02  0.25126700000E+02 0. -1.
     -611    1    3    3    0    0  0.20304750265E-01 -0.40782063897E-01  0.10380124897E+02  0.10380229687E+02  0.10000000000E-01 0. -1.
      611    1    3    3    0    0 -0.21110113354E-01  0.42935428591E-01  0.16178432109E+01  0.16185813983E+01  0.10000000000E-01 0.  1.
</event>
<event>
 7   0  0.6206631E-02  0.9118800E+02  0.7818608E-02  0.1180000E+00
       11   -1    0    0    0    0  0.00000000000E+00  0.00000000000E+00  0.11999999989E+02  0.12000000000E+02  0.51109989000E-03 0.  1.
     -623   -1    0    0    0    0  0.00000000000E+00  0.00000000000E+00  0.42561509872E-11  0.25126700000E+02  0.25126700000E+02 0.  1.
      622    2    1    2    0    0  0.33544730424E-03  0.35205718688E-01  0.11066209317E+02  0.11066690377E+02  0.96993253551E-01 0.  0.
       11    1    1    2    0    0 -0.49854459352E-01  0.91044893082E-02  0.93184445554E+00  0.93322168287E+00  0.51109989000E-03 0.  1.
     -623    1    1    2    0    0  0.49519012048E-01 -0.44310207997E-01  0.19462166278E-02  0.25126787940E+02  0.25126700000E+02 0.  1.
     -611    1    3    3    0    0  0.20330511653E-01 -0.99129397349E-02  0.85666846972E+00  0.85702535732E+00  0.10000000000E-01 0. -1.
      611    1    3    3    0    0 -0.19995064348E-01  0.45118658423E-01  0.10209540847E+02  0.10209665019E+02  0.10000000000E-01 0.  1.
</event>
<event>
 7   0  0.6206631E-02  0.9118800E+02  0.7818608E-02  0.1180000E+00
       11   -1    0    0    0    0  0.00000000000E+00  0.00000000000E+00  0.11999999989E+02  0.12000000000E+02  0.51109989000E-03 0.  1.
     -623   -1    0    0    0    0  0.00000000000E+00  0.00000000000E+00  0.42561509872E-11  0.25126700000E+02  0.25126700000E+02 0.  1.
      622    2    1    2    0    0 -0.73768935997E-01  0.28968262729E-01  0.11913031015E+02  0.11914284422E+02  0.15357185177E+00 0.  0.
       11    1    1    2    0    0  0.56916759283E-01 -0.39436824693E-03  0.64044361307E-01  0.85683221531E-01  0.51109989000E-03 0.  1.
     -623    1    1    2    0    0  0.16852176714E-01 -0.28573894482E-01  0.22924612612E-01  0.25126732356E+02  0.25126700000E+02 0.  1.
     -611    1    3    3    0    0  0.21005725757E-01  0.79552734774E-03  0.32711692152E+00  0.32794413202E+00  0.10000000000E-01 0. -1.
      611    1    3    3    0    0 -0.94774661754E-01  0.28172735382E-01  0.11585914094E+02  0.11586340290E+02  0.10000000000E-01 0.  1.
</event>
<event>
 7   0  0.6206631E-02  0.9118800E+02  0.7818608E-02  0.1180000E+00
       11   -1    0    0    0    0  0.00000000000E+00  0.00000000000E+00  0.11999999989E+02  0.12000000000E+02  0.51109989000E-03 0. -1.
     -623   -1    0    0    0    0  0.00000000000E+00  0.00000000000E+00  0.42561509872E-11  0.25126700000E+02  0.25126700000E+02 0.  1.
      622    2    1    2    0    0 -0.22883326590E-01  0.21790683589E-01  0.99306754230E+01  0.99316004660E+01  0.13181418160E+00 0.  0.
       11    1    1    2    0    0  0.15415506056E-01 -0.21166756763E-01  0.20682325742E+01  0.20683983928E+01  0.51109989000E-03 0. -1.
     -623    1    1    2    0    0  0.74678205342E-02 -0.62392682639E-03  0.10919919930E-02  0.25126701141E+02  0.25126700000E+02 0.  1.
     -611    1    3    3    0    0 -0.37171045009E-01  0.66334548594E-01  0.40203167908E+01  0.40210482536E+01  0.10000000000E-01 0.  1.
      611    1    3    3    0    0  0.14287718419E-01 -0.44543865004E-01  0.59103586321E+01  0.59105522124E+01  0.10000000000E-01 0. -1.
</event>
<event>
 7   0  0.6206631E-02  0.9118800E+02  0.7818608E-02  0.1180000E+00
       11   -1    0    0    0    0  0.00000000000E+00  0.00000000000E+00  0.11999999989E+02  0.12000000000E+02  0.51109989000E-03 0.  1.
     -623   -1    0    0    0    0  0.00000000000E+00  0.00000000000E+00  0.42561509872E-11  0.25126700000E+02  0.25126700000E+02 0.  1.
      622    2    1    2    0    0 -0.77474323988E-01 -0.18331651763E-01  0.66231739644E+01  0.66241920962E+01  0.84553211221E-01 0.  0.
       11    1    1    2    0    0  0.80800196992E-01  0.20640560350E-01  0.53751606070E+01  0.53758075223E+01  0.51109989000E-03 0.  1.
     -623    1    1    2    0    0 -0.33258730037E-02 -0.23089085865E-02  0.16654177020E-02  0.25126700381E+02  0.25126700000E+02 0.  1.
     -611    1    3    3    0    0 -0.89843505901E-02 -0.36374531577E-01  0.14306289757E+01  0.14311544610E+01  0.10000000000E-01 0.  1.
      611    1    3    3    0    0 -0.68489973398E-01  0.18042879814E-01  0.51925449886E+01  0.51930376352E+01  0.10000000000E-01 0. -1.
</event>
<event>
 7   0  0.6206631E-02  0.9118800E+02  0.7818608E-02  0.1180000E+00
       11   -1    0    0    0    0  0.00000000000E+00  0.00000000000E+00  0.11999999989E+02  0.12000000000E+02  0.51109989000E-03 0.  1.
     -623   -1    0    0    0    0  0.00000000000E+00  0.00000000000E+00  0.42561509872E-11  0.25126700000E+02  0.25126700000E+02 0.  1.
      622    2    1    2    0    0  0.14256589500E-01  0.30791746347E-01  0.11640206384E+02  0.11640829934E+02  0.11560928395E+00 0.  0.
       11    1    1    2    0    0 -0.13256060781E-01 -0.30629416564E-01  0.35761558750E+00  0.35916995135E+00  0.51109989000E-03 0.  1.
     -623    1    1    2    0    0 -0.10005287199E-02 -0.16232978288E-03  0.21780177392E-02  0.25126700115E+02  0.25126700000E+02 0.  1.
     -611    1    3    3    0    0  0.32383151129E-02  0.54949889155E-01  0.10799498555E+02  0.10799643467E+02  0.10000000000E-01 0.  1.
      611    1    3    3    0    0  0.11018274387E-01 -0.24158142809E-01  0.84070782851E+00  0.84118646634E+00  0.10000000000E-01 0. -1.
</event>
<event>
 7   0  0.6206631E-02  0.9118800E+02  0.7818608E-02  0.1180000E+00
       11   -1    0    0    0    0  0.00000000000E+00  0.00000000000E+00  0.11999999989E+02  0.12000000000E+02  0.51109989000E-03 0. -1.
     -623   -1    0    0    0    0  0.00000000000E+00  0.00000000000E+00  0.42561509872E-11  0.25126700000E+02  0.25126700000E+02 0. -1.
      622    2    1    2    0    0  0.83732322848E-02  0.88771275996E-02  0.11922496683E+02  0.11922768359E+02  0.79556792864E-01 0.  0.
       11    1    1    2    0    0  0.10105972122E-01 -0.21524978302E-01  0.73467124934E-01  0.77221337936E-01  0.51109989000E-03 0. -1.
     -623    1    1    2    0    0 -0.18479204407E-01  0.12647850702E-01  0.40361811854E-02  0.25126710303E+02  0.25126700000E+02 0. -1.
     -611    1    3    3    0    0  0.30218002254E-01 -0.69639700818E-02  0.10029752240E+02  0.10029805164E+02  0.10000000000E-01 0. -1.
      611    1    3    3    0    0 -0.21844769969E-01  0.15841097681E-01  0.18927444430E+01  0.18929631959E+01  0.10000000000E-01 0.  1.
</event>
<event>
 7   0  0.6206631E-02  0.9118800E+02  0.7818608E-02  0.1180000E+00
       11   -1    0    0    0    0  0.00000000000E+00  0.00000000000E+00  0.11999999989E+02  0.12000000000E+02  0.51109989000E-03 0.  1.
     -623   -1    0    0    0    0  0.00000000000E+00  0.00000000000E+00  0.42561509872E-11  0.25126700000E+02  0.25126700000E+02 0.  1.
      622    2    1    2    0    0 -0.60871395792E-01 -0.33782121499E-01  0.37990966017E+01  0.38009316244E+01  0.95392169743E-01 0.  0.
       11    1    1    2    0    0  0.61137188702E-01  0.31894951055E-01  0.81987782177E+01  0.81990682134E+01  0.51109989000E-03 0.  1.
     -623    1    1    2    0    0 -0.26579290949E-03  0.18871704443E-02  0.21251697055E-02  0.25126700162E+02  0.25126700000E+02 0.  1.
     -611    1    3    3    0    0  0.18648609129E-02  0.24128266890E-01  0.47287975697E+00  0.47360417600E+00  0.10000000000E-01 0.  1.
      611    1    3    3    0    0 -0.62736256705E-01 -0.57910388389E-01  0.33262168447E+01  0.33273274484E+01  0.10000000000E-01 0.  1.
</event>
<event>
 7   0  0.6206631E-02  0.9118800E+02  0.7818608E-02  0.1180000E+00
       11   -1    0    0    0    0  0.00000000000E+00  0.00000000000E+00  0.11999999989E+02  0.12000000000E+02  0.51109989000E-03 0.  1.
     -623   -1    0    0    0    0  0.00000000000E+00  0.00000000000E+00  0.42561509872E-11  0.25126700000E+02  0.25126700000E+02 0.  1.
      622    2    1    2    0    0  0.12117874238E-01  0.29520912017E-01  0.11606656605E+02  0.11606963364E+02  0.78119482321E-01 0.  0.
       11    1    1    2    0    0 -0.26095097693E-02  0.52314900717E-02  0.39296698478E+00  0.39301080186E+00  0.51109989000E-03 0.  1.
     -623    1    1    2    0    0 -0.95083644685E-02 -0.34752402088E-01  0.37639959306E-03  0.25126725835E+02  0.25126700000E+02 0.  1.
     -611    1    3    3    0    0 -0.21177406178E-02  0.52354704127E-01  0.87479052172E+01  0.87480678546E+01  0.10000000000E-01 0.  1.
      611    1    3    3    0    0  0.14235614856E-01 -0.22833792110E-01  0.28587513876E+01  0.28588955089E+01  0.10000000000E-01 0. -1.
</event>
<event>
 7   0  0.6206631E-02  0.9118800E+02  0.7818608E-02  0.1180000E+00
       11   -1    0    0    0    0  0.00000000000E+00  0.00000000000E+00  0.11999999989E+02  0.12000000000E+02  0.51109989000E-03 0. -1.
     -623   -1    0    0    0    0  0.00000000000E+00  0.00000000000E+00  0.42561509872E-11  0.25126700000E+02  0.25126700000E+02 0.  1.
      622    2    1    2    0    0  0.18603959414E-01  0.30274340140E-01  0.10332312770E+02  0.10332976785E+02  0.11162174121E+00 0.  0.
       11    1    1    2    0    0 -0.18195113774E-02 -0.23245327146E-01  0.16668534632E+01  0.16670166121E+01  0.51109989000E-03 0. -1.
     -623    1    1    2    0    0 -0.16784448036E-01 -0.70290129943E-02  0.83375560788E-03  0.25126706603E+02  0.25126700000E+02 0.  1.
     -611    1    3    3    0    0  0.37249264006E-02 -0.39490246613E-04  0.93900838185E+01  0.93900898822E+01  0.10000000000E-01 0.  1.
      611    1    3    3    0    0  0.14879033013E-01  0.30313830387E-01  0.94222895177E+00  0.94288690281E+00  0.10000000000E-01 0. -1.
</event>
<event>
 7   0  0.6206631E-02  0.9118800E+02  0.7818608E-02  0.1180000E+00
       11   -1    0    0    0    0  0.00000000000E+00  0.00000000000E+00  0.11999999989E+02  0.12000000000E+02  0.51109989000E-03 0. -1.
     -623   -1    0    0    0    0  0.00000000000E+00  0.00000000000E+00  0.42561509872E-11  0.25126700000E+02  0.25126700000E+02 0. -1.
      622    2    1    2    0    0  0.12957106055E+00 -0.57941221262E-01  0.74320365070E+01  0.74342485159E+01  0.11286500459E+00 0.  0.
       11    1    1    2    0    0 -0.19962519547E+00 -0.52193831976E-01  0.45607462958E+01  0.45654114219E+01  0.51109989000E-03 0. -1.
     -623    1    1    2    0    0  0.70054134918E-01  0.11013505324E+00  0.72171862547E-02  0.25127040062E+02  0.25126700000E+02 0. -1.
     -611    1    3    3    0    0  0.61144549614E-01 -0.58013322746E-01  0.59440205860E+01  0.59446265592E+01  0.10000000000E-01 0. -1.
      611    1    3    3    0    0  0.68426510935E-01  0.72101484419E-04  0.14880159210E+01  0.14896219566E+01  0.10000000000E-01 0.  1.
</event>
<event>
 7   0  0.6206631E-02  0.9118800E+02  0.7818608E-02  0.1180000E+00
       11   -1    0    0    0    0  0.00000000000E+00  0.00000000000E+00  0.11999999989E+02  0.12000000000E+02  0.51109989000E-03 0.  1.
     -623   -1    0    0    0    0  0.00000000000E+00  0.00000000000E+00  0.42561509872E-11  0.25126700000E+02  0.25126700000E+02 0.  1.
      622    2    1    2    0    0  0.10676583487E-01 -0.10457633139E-01  0.11433310697E+02  0.11433450212E+02  0.54469241199E-01 0.  0.
       11    1    1    2    0    0 -0.74120495292E-02  0.14349367245E-01  0.56631879145E+00  0.56654927198E+00  0.51109989000E-03 0.  1.
     -623    1    1    2    0    0 -0.32645339573E-02 -0.38917341058E-02  0.37050056444E-03  0.25126700516E+02  0.25126700000E+02 0.  1.
     -611    1    3    3    0    0 -0.97721347712E-02  0.13985103752E-01  0.25481575195E+01  0.25482342557E+01  0.10000000000E-01 0.  1.
      611    1    3    3    0    0  0.20448718258E-01 -0.24442736891E-01  0.88851531776E+01  0.88852159562E+01  0.10000000000E-01 0. -1.
</event>
<event>
 7   0  0.6206631E-02  0.9118800E+02  0.7818608E-02  0.1180000E+00
       11   -1    0    0    0    0  0.00000000000E+00  0.00000000000E+00  0.11999999989E+02  0.12000000000E+02  0.51109989000E-03 0. -1.
     -623   -1    0    0    0    0  0.00000000000E+00  0.00000000000E+00  0.42561509872E-11  0.25126700000E+02  0.25126700000E+02 0. -1.
      622    2    1    2    0    0 -0.12537060970E-01  0.22907872670E-01  0.11960884041E+02  0.11961356782E+02  0.10308780121E+00 0.  0.
       11    1    1    2    0    0 -0.29521451450E-01  0.17449410307E-01  0.17638315451E-01  0.38566428547E-01  0.51109989000E-03 0. -1.
     -623    1    1    2    0    0  0.42058512421E-01 -0.40357282977E-01  0.21477633085E-01  0.25126776789E+02  0.25126700000E+02 0. -1.
     -611    1    3    3    0    0  0.25566650210E-01 -0.27520108336E-01  0.60887831610E+01  0.60889072412E+01  0.10000000000E-01 0. -1.
      611    1    3    3    0    0 -0.38103711180E-01  0.50427981006E-01  0.58721008795E+01  0.58724495412E+01  0.10000000000E-01 0.  1.
</event>
<event>
 7   0  0.6206631E-02  0.9118800E+02  0.7818608E-02  0.1180000E+00
       11   -1    0    0    0    0  0.00000000000E+00  0.00000000000E+00  0.11999999989E+02  0.12000000000E+02  0.51109989000E-03 0. -1.
     -623   -1    0    0    0    0  0.00000000000E+00  0.00000000000E+00  0.42561509872E-11  0.25126700000E+02  0.25126700000E+02 0. -1.
      622    2    1    2    0    0  0.43473654159E-02  0.95704985187E-03  0.11948660887E+02  0.11949175594E+02  0.11081776998E+00 0.  0.
       11    1    1    2    0    0 -0.35333599772E-02  0.19148404156E-02  0.50662499228E-01  0.50824219597E-01  0.51109989000E-03 0. -1.
     -623    1    1    2    0    0 -0.81400543877E-03 -0.28718902674E-02  0.67660332436E-03  0.25126700186E+02  0.25126700000E+02 0. -1.
     -611    1    3    3    0    0  0.11162627101E-02 -0.50080719370E-01  0.37332716673E+01  0.37336211198E+01  0.10000000000E-01 0.  1.
      611    1    3    3    0    0  0.32311027058E-02  0.51037769222E-01  0.82153892192E+01  0.82155544741E+01  0.10000000000E-01 0. -1.
</event>
<event>
 7   0  0.6206631E-02  0.9118800E+02  0.7818608E-02  0.1180000E+00
       11   -1    0    0    0    0  0.00000000000E+00  0.00000000000E+00  0.11999999989E+02  0.12000000000E+02  0.51109989000E-03 0.  1.
     -623   -1    0    0    0    0  0.00000000000E+00  0.00000000000E+00  0.42561509872E-11  0.25126700000E+02  0.25126700000E+02 0. -1.
      622    2    1    2    0    0  0.11104714877E-02 -0.67810965194E-02  0.11911755778E+02  0.11912244415E+02  0.10767573100E+00 0.  0.
       11    1    1    2    0    0 -0.19420757067E-03 -0.32842577567E-03  0.87752239695E-01  0.87754557572E-01  0.51109989000E-03 0.  1.
     -623    1    1    2    0    0 -0.91626391707E-03  0.71095222951E-02  0.49197097057E-03  0.25126701027E+02  0.25126700000E+02 0. -1.
     -611    1    3    3    0    0  0.43170267460E-01 -0.39138318395E-02  0.94684606487E+01  0.94685651524E+01  0.10000000000E-01 0.  1.
      611    1    3    3    0    0 -0.42059795972E-01 -0.28672646799E-02  0.24432951298E+01  0.24436792627E+01  0.10000000000E-01 0. -1.
</event>
<event>
 7   0  0.6206631E-02  0.9118800E+02  0.7818608E-02  0.1180000E+00
       11   -1    0    0    0    0  0.00000000000E+00  0.00000000000E+00  0.11999999989E+02  0.12000000000E+02  0.51109989000E-03 0. -1.
     -623   -1    0    0    0    0  0.00000000000E+00  0.00000000000E+00  0.42561509872E-11  0.25126700000E+02  0.25126700000E+02 0.  1.
      622    2    1    2    0    0  0.10946270451E-01  0.99581445794E-03  0.11696924381E+02  0.11697554691E+02  0.12093370777E+00 0.  0.
       11    1    1    2    0    0 -0.12671458888E-01 -0.76649204251E-02  0.30208112150E+00  0.30244434540E+00  0.51109989000E-03 0. -1.
     -623    1    1    2    0    0  0.17251884368E-02  0.66691059671E-02  0.99448698354E-03  0.25126700964E+02  0.25126700000E+02 0.  1.
     -611    1    3    3    0    0  0.31608395875E-01  0.18817338163E-02  0.11243291952E+02  0.11243340987E+02  0.10000000000E-01 0. -1.
      611    1    3    3    0    0 -0.20662125424E-01 -0.88591935833E-03  0.45363242856E+00  0.45421370358E+00  0.10000000000E-01 0. -1.
</event>
<event>
 7   0  0.6206631E-02  0.9118800E+02  0.7818608E-02  0.1180000E+00
       11   -1    0    0    0    0  0.00000000000E+00  0.00000000000E+00  0.11999999989E+02  0.12000000000E+02  0.51109989000E-03 0.  1.
     -623   -1    0    0    0    0  0.00000000000E+00  0.00000000000E+00  0.42561509872E-11  0.25126700000E+02  0.25126700000E+02 0.  1.
      622    2    1    2    0    0  0.19803071688E-01 -0.24692078275E-01  0.99668005460E+01  0.99670853782E+01  0.68380928905E-01 0.  0.
       11    1    1    2    0    0  0.81841761488E-02  0.59784313593E-01  0.20319786731E+01  0.20328745004E+01  0.51109989000E-03 0.  1.
     -623    1    1    2    0    0 -0.27987247837E-01 -0.35092235318E-01  0.12207699588E-02  0.25126740121E+02  0.25126700000E+02 0.  1.
     -611    1    3    3    0    0  0.17452407139E-01 -0.15448897510E-01  0.95869533424E+01  0.95869868908E+01  0.10000000000E-01 0.  1.
      611    1    3    3    0    0  0.23506645494E-02 -0.92431807646E-02  0.37984720362E+00  0.38009848738E+00  0.10000000000E-01 0. -1.
</event>
<event>
 7   0  0.6206631E-02  0.9118800E+02  0.7818608E-02  0.1180000E+00
       11   -1    0    0    0    0  0.00000000000E+00  0.00000000000E+00  0.11999999989E+02  0.12000000000E+02  0.51109989000E-03 0.  1.
     -623   -1    0    0    0    0  0.00000000000E+00  0.00000000000E+00  0.42561509872E-11  0.25126700000E+02  0.25126700000E+02 0.  1.
      622    2    1    2    0    0  0.12147224924E-01 -0.21996424300E-01  0.11847373996E+02  0.11848122656E+02  0.13079943208E+00 0.  0.
       11    1    1    2    0    0 -0.15257633635E-01  0.20624421767E-01  0.14969362806E+00  0.15187694250E+00  0.51109989000E-03 0.  1.
     -623    1    1    2    0    0  0.31104087119E-02  0.13720025326E-02  0.29323654281E-02  0.25126700401E+02  0.25126700000E+02 0.  1.
     -611    1    3    3    0    0 -0.42002387238E-01  0.16262859742E-01  0.20496004079E+01  0.20501196339E+01  0.10000000000E-01 0. -1.
      611    1    3    3    0    0  0.54149612162E-01 -0.38259284042E-01  0.97977735877E+01  0.97980030225E+01  0.10000000000E-01 0.  1.
</event>
<event>
 7   0  0.6206631E-02  0.9118800E+02  0.7818608E-02  0.1180000E+00
       11   -1    0    0    0    0  0.00000000000E+00  0.00000000000E+00  0.11999999989E+02  0.12000000000E+02  0.51109989000E-03 0. -1.
     -623   -1    0    0    0    0  0.00000000000E+00  0.00000000000E+00  0.42561509872E-11  0.25126700000E+02  0.25126700000E+02 0.  1.
      622    2    1    2    0    0 -0.15922044375E-01  0.51026032361E-01  0.93023596432E+01  0.93030170329E+01  0.96818465614E-01 0.  0.
       11    1    1    2    0    0  0.48887674834E-01 -0.39146132420E-01  0.26962311536E+01  0.26969584942E+01  0.51109989000E-03 0. -1.
     -623    1    1    2    0    0 -0.32965630459E-01 -0.11879899941E-01  0.14091923538E-02  0.25126724473E+02  0.25126700000E+02 0.  1.
     -611    1    3    3    0    0 -0.40853359790E-01  0.59844766270E-01  0.80772777429E+01  0.80776089363E+01  0.10000000000E-01 0. -1.
      611    1    3    3    0    0  0.24931315414E-01 -0.88187339088E-02  0.12250819003E+01  0.12254080965E+01  0.10000000000E-01 0.  1.
</event>
<event>
 7   0  0.6206631E-02  0.9118800E+02  0.7818608E-02  0.1180000E+00
       11   -1    0    0    0    0  0.00000000000E+00  0.00000000000E+00  0.11999999989E+02  0.12000000000E+02  0.51109989000E-03 0. -1.
     -623   -1    0    0    0    0  0.00000000000E+00  0.00000000000E+00  0.42561509872E-11  0.25126700000E+02  0.25126700000E+02 0.  1.
      622    2    1    2    0    0 -0.33467072604E-02 -0.16766503885E-02  0.11729186774E+02  0.11729687980E+02  0.10836847482E+00 0.  0.
       11    1    1    2    0    0  0.46165029417E-02  0.27244885686E-02  0.27025831963E+00  0.27031195958E+00  0.51109989000E-03 0. -1.
     -623    1    1    2    0    0 -0.12697956812E-02 -0.10478381801E-02  0.55489551709E-03  0.25126700060E+02  0.25126700000E+02 0.  1.
     -611    1    3    3    0    0  0.47813729466E-02 -0.17473758396E-01  0.44321292381E+00  0.44369571735E+00  0.10000000000E-01 0. -1.
      611    1    3    3    0    0 -0.81280802071E-02  0.15797108007E-01  0.11285973850E+02  0.11285992263E+02  0.10000000000E-01 0. -1.
</event>
<event>
 7   0  0.6206631E-02  0.9118800E+02  0.7818608E-02  0.1180000E+00
       11   -1    0    0    0    0  0.00000000000E+00  0.00000000000E+00  0.11999999989E+02  0.12000000000E+02  0.51109989000E-03 0.  1.
     -623   -1    0    0    0    0  0.00000000000E+00  0.00000000000E+00  0.42561509872E-11  0.25126700000E+02  0.25126700000E+02 0.  1.
      622    2    1    2    0    0  0.15816177496E-02 -0.50250182997E-02  0.11961724548E+02  0.11962086453E+02  0.92899930084E-01 0.  0.
       11    1    1    2    0    0  0.71120960591E-02 -0.52967785225E-02  0.36854581962E-01  0.37909882719E-01  0.51109989000E-03 0.  1.
     -623    1    1    2    0    0 -0.86937138087E-02  0.10321796822E-01  0.14208591919E-02  0.25126703664E+02  0.25126700000E+02 0.  1.
     -611    1    3    3    0    0  0.13833084079E-01 -0.20955982365E-01  0.11196752687E+02  0.11196785309E+02  0.10000000000E-01 0.  1.
      611    1    3    3    0    0 -0.12251466329E-01  0.15930964066E-01  0.76497186063E+00  0.76530114438E+00  0.10000000000E-01 0. -1.
</event>
<event>
 7   0  0.6206631E-02  0.9118800E+02  0.7818608E-02  0.1180000E+00
       11   -1    0    0    0    0  0.00000000000E+00  0.00000000000E+00  0.11999999989E+02  0.12000000000E+02  0.51109989000E-03 0.  1.
     -623   -1    0    0    0    0  0.00000000000E+00  0.00000000000E+00  0.42561509872E-11  0.25126700000E+02  0.25126700000E+02 0.  1.
      622    2    1    2    0    0 -0.18657609165E-01  0.21589196995E-01  0.90488418665E+01  0.90495737727E+01  0.11149951230E+00 0.  0.
       11    1    1    2    0    0  0.37867212400E-01  0.10363630607E-01  0.29501372839E+01  0.29503985470E+01  0.51109989000E-03 0.  1.
     -623    1    1    2    0    0 -0.19209603234E-01 -0.31952827602E-01  0.10208386416E-02  0.25126727680E+02  0.25126700000E+02 0.  1.
     -611    1    3    3    0    0  0.35640318698E-01  0.41149756147E-01  0.37557109734E+01  0.37561188015E+01  0.10000000000E-01 0. -1.
      611    1    3    3    0    0 -0.54297927864E-01 -0.19560559152E-01  0.52931308931E+01  0.52934549712E+01  0.10000000000E-01 0.  1.
</event>
<event>
 7   0  0.6206631E-02  0.9118800E+02  0.7818608E-02  0.1180000E+00
       11   -1    0    0    0    0  0.00000000000E+00  0.00000000000E+00  0.11999999989E+02  0.12000000000E+02  0.51109989000E-03 0. -1.
     -623   -1    0    0    0    0  0.00000000000E+00  0.00000000000E+00  0.42561509872E-11  0.25126700000E+02  0.25126700000E+02 0. -1.
      622    2    1    2    0    0 -0.21350490590E-02 -0.90749611489E-02  0.11716199452E+02  0.11717611266E+02  0.18165143941E+00 0.  0.
       11    1    1    2    0    0  0.91384258814E-03  0.10813851743E-01  0.28217951976E+00  0.28238859236E+00  0.51109989000E-03 0. -1.
     -623    1    1    2    0    0  0.12212064708E-02 -0.17388905940E-02  0.16210168593E-02  0.25126700142E+02  0.25126700000E+02 0. -1.
     -611    1    3    3    0    0 -0.36178914790E-01  0.55944507299E-01  0.93714378021E+01  0.93716799550E+01  0.10000000000E-01 0. -1.
      611    1    3    3    0    0  0.34043865731E-01 -0.65019468448E-01  0.23447616504E+01  0.23459313105E+01  0.10000000000E-01 0.  1.
</event>
<event>
 7   0  0.6206631E-02  0.9118800E+02  0.7818608E-02  0.1180000E+00
       11   -1    0    0    0    0  0.00000000000E+00  0.00000000000E+00  0.11999999989E+02  0.12000000000E+02  0.51109989000E-03 0.  1.
     -623   -1    0    0    0    0  0.00000000000E+00  0.00000000000E+00  0.42561509872E-11  0.25126700000E+02  0.25126700000E+02 0. -1.
      622    2    1    2    0    0  0.30846982838E-02 -0.15525278242E-02  0.11959522359E+02  0.11959873663E+02  0.91602733017E-01 0.  0.
       11    1    1    2    0    0 -0.15317696474E-02 -0.28936790024E-03  0.40092669128E-01  0.40126218274E-01  0.51109989000E-03 0.  1.
     -623    1    1    2    0    0 -0.15529286364E-02  0.18418957244E-02  0.38496100119E-03  0.25126700118E+02  0.25126700000E+02 0. -1.
     -611    1    3    3    0    0  0.16507663142E-01 -0.11248017393E-01  0.11391719885E+02  0.11391741788E+02  0.10000000000E-01 0.  1.
      611    1    3    3    0    0 -0.13422964858E-01  0.96954895688E-02  0.56780247356E+00  0.56813187508E+00  0.10000000000E-01 0. -1.
</event>
<event>
 7   0  0.6206631E-02  0.9118800E+02  0.7818608E-02  0.1180000E+00
       11   -1    0    0    0    0  0.00000000000E+00  0.00000000000E+00  0.11999999989E+02  0.12000000000E+02  0.51109989000E-03 0. -1.
     -623   -1    0    0    0    0  0.00000000000E+00  0.00000000000E+00  0.42561509872E-11  0.25126700000E+02  0.25126700000E+02 0. -1.
      622    2    1    2    0    0 -0.27685186800E-01  0.40583974083E-01  0.65961961188E+01  0.65971134931E+01  0.98436144088E-01 0.  0.
       11    1    1    2    0    0  0.29293828441E-01 -0.40087455360E-01  0.54026582643E+01  0.54028864243E+01  0.51109989000E-03 0. -1.
     -623    1    1    2    0    0 -0.16086416406E-02 -0.49651872313E-03  0.11456059774E-02  0.25126700083E+02  0.25126700000E+02 0. -1.
     -611    1    3    3    0    0 -0.36258528670E-01  0.48756228335E-01  0.64031277468E+01  0.64034238336E+01  0.10000000000E-01 0. -1.
      611    1    3    3    0    0  0.85733418691E-02 -0.81722542517E-02  0.19306837207E+00  0.19368965957E+00  0.10000000000E-01 0.  1.
</event>
<event>
 7   0  0.6206631E-02  0.9118800E+02  0.7818608E-02  0.1180000E+00
       11   -1    0    0    0    0  0.00000000000E+00  0.00000000000E+00  0.11999999989E+02  0.12000000000E+02  0.51109989000E-03 0.  1.
     -623   -1    0    0    0    0  0.00000000000E+00  0.00000000000E+00  0.42561509872E-11  0.25126700000E+02  0.25126700000E+02 0. -1.
      622    2    1    2    0    0 -0.24720998158E-01 -0.14819233090E-01  0.11407955274E+02  0.11408604580E+02  0.11825476171E+00 0.  0.
       11    1    1    2    0    0  0.23432312570E-01 -0.64309192968E-02  0.59088675121E+00  0.59138637452E+00  0.51109989000E-03 0.  1.
     -623    1    1    2    0    0  0.12886855884E-02  0.21250152387E-01  0.11579638649E-02  0.25126709046E+02  0.25126700000E+02 0. -1.
     -611    1    3    3    0    0  0.30418874903E-01 -0.26401582530E-02  0.86184352894E+01  0.86184951770E+01  0.10000000000E-01 0.  1.
      611    1    3    3    0    0 -0.55139873061E-01 -0.12179074837E-01  0.27895199846E+01  0.27901094029E+01  0.10000000000E-01 0. -1.
</event>
<event>
 7   0  0.6206631E-02  0.9118800E+02  0.7818608E-02  0.1180000E+00
       11   -1    0    0    0    0  0.00000000000E+00  0.00000000000E+00  0.11999999989E+02  0.12000000000E+02  0.51109989000E-03 0. -1.
     -623   -1    0    0    0    0  0.00000000000E+00  0.00000000000E+00  0.42561509872E-11  0.25126700000E+02  0.25126700000E+02 0. -1.
      622    2    1    2    0    0 -0.99495935619E-03 -0.76924311235E-03  0.11867615264E+02  0.11868108096E+02  0.10814865296E+00 0.  0.
       11    1    1    2    0    0  0.17032399558E-02  0.79025325518E-03  0.13187753284E+00  0.13189188913E+00  0.51109989000E-03 0. -1.
     -623    1    1    2    0    0 -0.70828059958E-03 -0.21010142828E-04  0.50719204609E-03  0.25126700015E+02  0.25126700000E+02 0. -1.
     -611    1    3    3    0    0 -0.45692247636E-01  0.22721358305E-01  0.76882021511E+01  0.76883780057E+01  0.10000000000E-01 0.  1.
      611    1    3    3    0    0  0.44697288280E-01 -0.23490601417E-01  0.41794131131E+01  0.41797300901E+01  0.10000000000E-01 0. -1.
</event>
<event>
 7   0  0.6206631E-02  0.9118800E+02  0.7818608E-02  0.1180000E+00
       11   -1    0    0    0    0  0.00000000000E+00  0.00000000000E+00  0.11999999989E+02  0.12000000000E+02  0.51109989000E-03 0.  1.
     -623   -1    0    0    0    0  0.00000000000E+00  0.00000000000E+00  0.42561509872E-11  0.25126700000E+02  0.25126700000E+02 0.  1.
      622    2    1    2    0    0  0.10167916327E-01  0.26195012914E-01  0.10722477360E+02  0.10723154502E+02  0.11718433783E+00 0.  0.
       11    1    1    2    0    0 -0.85203179326E-02 -0.27289640249E-01  0.12765252036E+01  0.12768454005E+01  0.51109989000E-03 0.  1.
     -623    1    1    2    0    0 -0.16475983940E-02  0.10946273351E-02  0.99742556124E-03  0.25126700098E+02  0.25126700000E+02 0.  1.
     -611    1    3    3    0    0  0.36492985682E-01  0.32488364603E-01  0.19750906708E+01  0.19757202205E+01  0.10000000000E-01 0. -1.
      611    1    3    3    0    0 -0.26325069355E-01 -0.62933516890E-02  0.87473866893E+01  0.87474342814E+01  0.10000000000E-01 0.  1.
</event>
<event>
 7   0  0.6206631E-02  0.9118800E+02  0.7818608E-02  0.1180000E+00
       11   -1    0    0    0    0  0.00000000000E+00  0.00000000000E+00  0.11999999989E+02  0.12000000000E+02  0.51109989000E-03 0. -1.
     -623   -1    0    0    0    0  0.00000000000E+00  0.00000000000E+00  0.42561509872E-11  0.25126700000E+02  0.25126700000E+02 0.  1.
      622    2    1    2    0    0  0.25054470696E-01  0.10319966704E-01  0.11532815679E+02  0.11533299642E+02  0.10212211405E+00 0.  0.
       11    1    1    2    0    0 -0.21990706121E-01 -0.12245180441E-01  0.46602055613E+00  0.46670007024E+00  0.51109989000E-03 0. -1.
     -623    1    1    2    0    0 -0.30637645747E-02  0.19252137370E-02  0.11637540657E-02  0.25126700287E+02  0.25126700000E+02 0.  1.
     -611    1    3    3    0    0 -0.13911319581E-01 -0.34370841194E-01  0.66974609527E+01  0.66975710592E+01  0.10000000000E-01 0. -1.
      611    1    3    3    0    0  0.38965790276E-01  0.44690807898E-01  0.48353547262E+01  0.48357285831E+01  0.10000000000E-01 0.  1.
</event>
<event>
 7   0  0.6206631E-02  0.9118800E+02  0.7818608E-02  0.1180000E+00
       11   -1    0    0    0    0  0.00000000000E+00  0.00000000000E+00  0.11999999989E+02  0.12000000000E+02  0.51109989000E-03 0. -1.
     -623   -1    0    0    0    0  0.00000000000E+00  0.00000000000E+00  0.42561509872E-11  0.25126700000E+02  0.25126700000E+02 0. -1.
      622    2    1    2    0    0 -0.73759831765E-03  0.51128387015E-02  0.11948044675E+02  0.11948440882E+02  0.97166255513E-01 0.  0.
       11    1    1    2    0    0 -0.58838461505E-02  0.32120136797E-02  0.51116642386E-01  0.51556852400E-01  0.51109989000E-03 0. -1.
     -623    1    1    2    0    0  0.66214444682E-02 -0.83248523812E-02  0.83867213562E-03  0.25126702266E+02  0.25126700000E+02 0. -1.
     -611    1    3    3    0    0  0.42506014999E-01 -0.17337396585E-02  0.34383694055E+01  0.34386471084E+01  0.10000000000E-01 0. -1.
      611    1    3    3    0    0 -0.43243613316E-01  0.68465783600E-02  0.85096752691E+01  0.85097937737E+01  0.10000000000E-01 0.  1.
</event>
<event>
 7   0  0.6206631E-02  0.9118800E+02  0.7818608E-02  0.1180000E+00
       11   -1    0    0    0    0  0.00000000000E+00  0.00000000000E+00  0.11999999989E+02  0.12000000000E+02  0.51109989000E-03 0. -1.
     -623   -1    0    0    0    0  0.00000000000E+00  0.00000000000E+00  0.42561509872E-11  0.25126700000E+02  0.25126700000E+02 0. -1.
      622    2    1    2    0    0  0.24581165930E-01  0.85423698456E-01  0.10560269905E+02  0.10561118650E+02  0.10012603088E+00 0.  0.
       11    1    1    2    0    0 -0.27806131932E-01 -0.78402121753E-01  0.14364731734E+01  0.14388799508E+01  0.51109989000E-03 0. -1.
     -623    1    1    2    0    0  0.32249660016E-02 -0.70215767035E-02  0.32569102076E-02  0.25126701399E+02  0.25126700000E+02 0. -1.
     -611    1    3    3    0    0  0.43836083104E-01  0.98625595205E-01  0.87121539411E+01  0.87128281805E+01  0.10000000000E-01 0. -1.
      611    1    3    3    0    0 -0.19254917174E-01 -0.13201896748E-01  0.18481159644E+01  0.18482904695E+01  0.10000000000E-01 0.  1.
</event>
<event>
 7   0  0.6206631E-02  0.9118800E+02  0.7818608E-02  0.1180000E+00
       11   -1    0    0    0    0  0.00000000000E+00  0.00000000000E+00  0.11999999989E+02  0.12000000000E+02  0.51109989000E-03 0. -1.
     -623   -1    0    0    0    0  0.00000000000E+00  0.00000000000E+00  0.42561509872E-11  0.25126700000E+02  0.25126700000E+02 0.  1.
      622    2    1    2    0    0 -0.17751366156E-02 -0.45630900217E-02  0.11925002788E+02  0.11926036196E+02  0.15692000490E+00 0.  0.
       11    1    1    2    0    0  0.32161661544E-01 -0.10014254773E-01  0.65818952130E-01  0.73939525658E-01  0.51109989000E-03 0. -1.
     -623    1    1    2    0    0 -0.30386524929E-01  0.14577344795E-01  0.91782494619E-02  0.25126724279E+02  0.25126700000E+02 0.  1.
     -611    1    3    3    0    0  0.39161534569E-01 -0.31492791943E-01  0.10549725765E+02  0.10549850195E+02  0.10000000000E-01 0. -1.
      611    1    3    3    0    0 -0.40936671185E-01  0.26929701922E-01  0.13752770228E+01  0.13761860010E+01  0.10000000000E-01 0.  1.
</event>
<event>
 7   0  0.6206631E-02  0.9118800E+02  0.7818608E-02  0.1180000E+00
       11   -1    0    0    0    0  0.00000000000E+00  0.00000000000E+00  0.11999999989E+02  0.12000000000E+02  0.51109989000E-03 0.  1.
     -623   -1    0    0    0    0  0.00000000000E+00  0.00000000000E+00  0.42561509872E-11  0.25126700000E+02  0.25126700000E+02 0.  1.
      622    2    1    2    0    0  0.54437463457E-01  0.80412108906E-01  0.87248178057E+01  0.87261246589E+01  0.11565584272E+00 0.  0.
       11    1    1    2    0    0 -0.26504992029E-01 -0.85948619297E-01  0.32726233060E+01  0.32738590751E+01  0.51109989000E-03 0.  1.
     -623    1    1    2    0    0 -0.27932471427E-01  0.55365103909E-02  0.25588774282E-02  0.25126716266E+02  0.25126700000E+02 0.  1.
     -611    1    3    3    0    0  0.25720947215E-01 -0.21603362465E-01  0.37730635486E+01  0.37732263136E+01  0.10000000000E-01 0.  1.
      611    1    3    3    0    0  0.28716516242E-01  0.10201547137E+00  0.49517542572E+01  0.49528983452E+01  0.10000000000E-01 0. -1.
</event>
<event>
 7   0  0.6206631E-02  0.9118800E+02  0.7818608E-02  0.1180000E+00
       11   -1    0    0    0    0  0.00000000000E+00  0.00000000000E+00  0.11999999989E+02  0.12000000000E+02  0.51109989000E-03 0. -1.
     -623   -1    0    0    0    0  0.00000000000E+00  0.00000000000E+00  0.42561509872E-11  0.25126700000E+02  0.25126700000E+02 0. -1.
      622    2    1    2    0    0 -0.22587952177E-01  0.14615545108E-01  0.10405975139E+02  0.10406434323E+02  0.93983396221E-01 0.  0.
       11    1    1    2    0    0  0.24294156139E-01 -0.14308170247E-01  0.15933160876E+01  0.15935656077E+01  0.51109989000E-03 0. -1.
     -623    1    1    2    0    0 -0.17062039610E-02 -0.30737486091E-03  0.70876219421E-03  0.25126700070E+02  0.25126700000E+02 0. -1.
     -611    1    3    3    0    0 -0.16893198392E-01  0.47851249442E-01  0.83355540637E+01  0.83357145268E+01  0.10000000000E-01 0. -1.
      611    1    3    3    0    0 -0.56947537853E-02 -0.33235704334E-01  0.20704210756E+01  0.20707197958E+01  0.10000000000E-01 0.  1.
</event>
<event>
 7   0  0.6206631E-02  0.9118800E+02  0.7818608E-02  0.1180000E+00
       11   -1    0    0    0    0  0.00000000000E+00  0.00000000000E+00  0.11999999989E+02  0.12000000000E+02  0.51109989000E-03 0.  1.
     -623   -1    0    0    0    0  0.00000000000E+00  0.00000000000E+00  0.42561509872E-11  0.25126700000E+02  0.25126700000E+02 0.  1.
      622    2    1    2    0    0  0.60685687013E-02 -0.36120846488E-02  0.11621111354E+02  0.11621200134E+02  0.44872907800E-01 0.  0.
       11    1    1    2    0    0 -0.63229383160E-02  0.37416894261E-02  0.37872826129E+00  0.37879986393E+00  0.51109989000E-03 0.  1.
     -623    1    1    2    0    0  0.25436961466E-03 -0.12960477723E-03  0.16037389645E-03  0.25126700002E+02  0.25126700000E+02 0.  1.
     -611    1    3    3    0    0 -0.12956920109E-01 -0.13922829899E-01  0.51280521294E+01  0.51280971489E+01  0.10000000000E-01 0.  1.
      611    1    3    3    0    0  0.19025488810E-01  0.10310745250E-01  0.64930592245E+01  0.64931029850E+01  0.10000000000E-01 0. -1.
</event>
<event>
 7   0  0.6206631E-02  0.9118800E+02  0.7818608E-02  0.1180000E+00
       11   -1    0    0    0    0  0.00000000000E+00  0.00000000000E+00  0.11999999989E+02  0.12000000000E+02  0.51109989000E-03 0. -1.
     -623   -1    0    0    0    0  0.00000000000E+00  0.00000000000E+00  0.42561509872E-11  0.25126700000E+02  0.25126700000E+02 0. -1.
      622    2    1    2    0    0 -0.23785177903E-02 -0.13108505250E-02  0.11995663928E+02  0.11995915877E+02  0.77699867729E-01 0.  0.
       11    1    1    2    0    0  0.64570116732E-03  0.32248707521E-02  0.23665175606E-02  0.40839135470E-02  0.51109989000E-03 0. -1.
     -623    1    1    2    0    0  0.17328166229E-02 -0.19140202271E-02  0.19695435549E-02  0.25126700210E+02  0.25126700000E+02 0. -1.
     -611    1    3    3    0    0 -0.24119271657E-02  0.23473077503E-01  0.10374661713E+02  0.10374693368E+02  0.10000000000E-01 0. -1.
      611    1    3    3    0    0  0.33409375463E-04 -0.24783928028E-01  0.16210022145E+01  0.16212225090E+01  0.10000000000E-01 0. -1.
</event>
<event>
 7   0  0.6206631E-02  0.9118800E+02  0.7818608E-02  0.1180000E+00
       11   -1    0    0    0    0  0.00000000000E+00  0.00000000000E+00  0.11999999989E+02  0.12000000000E+02  0.51109989000E-03 0. -1.
     -623   -1    0    0    0    0  0.00000000000E+00  0.00000000000E+00  0.42561509872E-11  0.25126700000E+02  0.25126700000E+02 0.  1.
      622    2    1    2    0    0 -0.62842572039E-02 -0.16455354672E-03  0.11706919576E+02  0.11707284503E+02  0.92222394823E-01 0.  0.
       11    1    1    2    0    0  0.83326102659E-02 -0.12107827382E-01  0.29234270846E+00  0.29271240543E+00  0.51109989000E-03 0. -1.
     -623    1    1    2    0    0 -0.20483530620E-02  0.12272380929E-01  0.73770503551E-03  0.25126703091E+02  0.25126700000E+02 0.  1.
     -611    1    3    3    0    0 -0.30349227214E-01  0.31664935230E-01  0.39561720585E+01  0.39564278207E+01  0.10000000000E-01 0.  1.
      611    1    3    3    0    0  0.24064970011E-01 -0.31829488777E-01  0.77507475171E+01  0.77508566825E+01  0.10000000000E-01 0. -1.
</event>
<event>
 7   0  0.6206631E-02  0.9118800E+02  0.7818608E-02  0.1180000E+00
       11   -1    0    0    0    0  0.00000000000E+00  0.00000000000E+00  0.11999999989E+02  0.12000000000E+02  0.51109989000E-03 0. -1.
     -623   -1    0    0    0    0  0.00000000000E+00  0.00000000000E+00  0.42561509872E-11  0.25126700000E+02  0.25126700000E+02 0. -1.
      622    2    1    2    0    0 -0.73583268354E-02  0.43902979183E-02  0.11941037213E+02  0.11941383716E+02  0.90564425912E-01 0.  0.
       11    1    1    2    0    0  0.62549862034E-02 -0.79914392995E-03  0.58273579361E-01  0.58615994047E-01  0.51109989000E-03 0. -1.
     -623    1    1    2    0    0  0.11033406320E-02 -0.35911539883E-02  0.68919729489E-03  0.25126700290E+02  0.25126700000E+02 0. -1.
     -611    1    3    3    0    0 -0.14914656168E-01 -0.17601058995E-01  0.10932468904E+02  0.10932497820E+02  0.10000000000E-01 0. -1.
      611    1    3    3    0    0  0.75563293329E-02  0.21991356913E-01  0.10085683088E+01  0.10088858962E+01  0.10000000000E-01 0.  1.
</event>
<event>
 7   0  0.6206631E-02  0.9118800E+02  0.7818608E-02  0.1180000E+00
       11   -1    0    0    0    0  0.00000000000E+00  0.00000000000E+00  0.11999999989E+02  0.12000000000E+02  0.51109989000E-03 0. -1.
     -623   -1    0    0    0    0  0.00000000000E+00  0.00000000000E+00  0.42561509872E-11  0.25126700000E+02  0.25126700000E+02 0. -1.
      622    2    1    2    0    0  0.19056166930E-02  0.25701989928E-03  0.11997128646E+02  0.11997560806E+02  0.10181275356E+00 0.  0.
       11    1    1    2    0    0  0.99159726073E-03 -0.18340963387E-02  0.11575536863E-02  0.24389194687E-02  0.51109989000E-03 0. -1.
     -623    1    1    2    0    0 -0.28972139538E-02  0.15770764394E-02  0.17137894218E-02  0.25126700275E+02  0.25126700000E+02 0. -1.
     -611    1    3    3    0    0  0.10977432659E-01  0.83776622745E-02  0.34461008338E+00  0.34503159105E+00  0.10000000000E-01 0. -1.
      611    1    3    3    0    0 -0.90718159664E-02 -0.81206423752E-02  0.11652518563E+02  0.11652529214E+02  0.10000000000E-01 0. -1.
</event>
<event>
 7   0  0.6206631E-02  0.9118800E+02  0.7818608E-02  0.1180000E+00
       11   -1    0    0    0    0  0.00000000000E+00  0.00000000000E+00  0.11999999989E+02  0.12000000000E+02  0.51109989000E-03 0.  1.
     -623   -1    0    0    0    0  0.00000000000E+00  0.00000000000E+00  0.42561509872E-11  0.25126700000E+02  0.25126700000E+02 0.  1.
      622    2    1    2    0    0 -0.41285584939E-01  0.97601329908E-01  0.90393355545E+01  0.90404659946E+01  0.95956310539E-01 0.  0.
       11    1    1    2    0    0  0.51509720462E-01 -0.79043301916E-01  0.29580207019E+01  0.29595249329E+01  0.51109989000E-03 0.  1.
     -623    1    1    2    0    0 -0.10224135523E-01 -0.18558027993E-01  0.26437327787E-02  0.25126709072E+02  0.25126700000E+02 0.  1.
     -611    1    3    3    0    0 -0.43900836675E-01  0.21884888077E-01  0.17115932466E+01  0.17123252243E+01  0.10000000000E-01 0. -1.
      611    1    3    3    0    0  0.26152517358E-02  0.75716441831E-01  0.73277423079E+01  0.73281407703E+01  0.10000000000E-01 0.  1.
</event>
<event>
 7   0  0.6206631E-02  0.9118800E+02  0.7818608E-02  0.1180000E+00
       11   -1    0    0    0    0  0.00000000000E+00  0.00000000000E+00  0.11999999989E+02  0.12000000000E+02  0.51109989000E-03 0. -1.
     -623   -1    0    0    0    0  0.00000000000E+00  0.00000000000E+00  0.42561509872E-11  0.25126700000E+02  0.25126700000E+02 0.  1.
      622    2    1    2    0    0  0.33333632059E-02 -0.46867563580E-02  0.11963256881E+02  0.11963874441E+02  0.12142227629E+00 0.  0.
       11    1    1    2    0    0 -0.40713143196E-02  0.30115950599E-02  0.35765112455E-01  0.36125472968E-01  0.51109989000E-03 0. -1.
     -623    1    1    2    0    0  0.73795111365E-03  0.16751612981E-02  0.97799563354E-03  0.25126700086E+02  0.25126700000E+02 0.  1.
     -611    1    3    3    0    0 -0.24993717231E-01  0.35059996065E-01  0.95550681946E+01  0.95551704376E+01  0.10000000000E-01 0. -1.
      611    1    3    3    0    0  0.28327080437E-01 -0.39746752423E-01  0.24081886864E+01  0.24087040037E+01  0.10000000000E-01 0.  1.
</event>
<event>
 7   0  0.6206631E-02  0.9118800E+02  0.7818608E-02  0.1180000E+00
       11   -1    0    0    0    0  0.00000000000E+00  0.00000000000E+00  0.11999999989E+02  0.12000000000E+02  0.51109989000E-03 0. -1.
     -623   -1    0    0    0    0  0.00000000000E+00  0.00000000000E+00  0.42561509872E-11  0.25126700000E+02  0.25126700000E+02 0.  1.
      622    2    1    2    0    0  0.22291630706E-02  0.20600236194E-02  0.11939746181E+02  0.11940275531E+02  0.11239076638E+00 0.  0.
       11    1    1    2    0    0  0.25302587339E-03 -0.27554317855E-03  0.59720918382E-01  0.59724276988E-01  0.51109989000E-03 0. -1.
     -623    1    1    2    0    0 -0.24821889440E-02 -0.17844804408E-02  0.53288967047E-03  0.25126700192E+02  0.25126700000E+02 0.  1.
     -611    1    3    3    0    0  0.35706429140E-01 -0.85848602644E-02  0.15570968913E+01  0.15575619981E+01  0.10000000000E-01 0.  1.
      611    1    3    3    0    0 -0.33477266070E-01  0.10644883884E-01  0.10382649290E+02  0.10382713533E+02  0.10000000000E-01 0. -1.
</event>
<event>
 7   0  0.6206631E-02  0.9118800E+02  0.7818608E-02  0.1180000E+00
       11   -1    0    0    0    0  0.00000000000E+00  0.00000000000E+00  0.11999999989E+02  0.12000000000E+02  0.51109989000E-03 0.  1.
     -623   -1    0    0    0    0  0.00000000000E+00  0.00000000000E+00  0.42561509872E-11  0.25126700000E+02  0.25126700000E+02 0.  1.
      622    2    1    2    0    0 -0.36160877894E-04  0.77209086879E-04  0.11989587252E+02  0.11989890128E+02  0.85222098904E-01 0.  0.
       11    1    1    2    0    0  0.34136486863E-02  0.92223088531E-03  0.94572416195E-02  0.10109606786E-01  0.51109989000E-03 0. -1.
     -623    1    1    2    0    0 -0.33774878084E-02 -0.99943997219E-03  0.95549554658E-03  0.25126700265E+02  0.25126700000E+02 0.  1.
     -611    1    3    3    0    0 -0.21047252528E-01  0.27720821706E-01  0.91679784642E+01  0.91680499863E+01  0.10000000000E-01 0.  1.
      611    1    3    3    0    0  0.21011091650E-01 -0.27643612619E-01  0.28216087877E+01  0.28218401419E+01  0.10000000000E-01 0. -1.
</event>
<event>
 7   0  0.6206631E-02  0.9118800E+02  0.7818608E-02  0.1180000E+00
       11   -1    0    0    0    0  0.00000000000E+00  0.00000000000E+00  0.11999999989E+02  0.12000000000E+02  0.51109989000E-03 0. -1.
     -623   -1    0    0    0    0  0.00000000000E+00  0.00000000000E+00  0.42561509872E-11  0.25126700000E+02  0.25126700000E+02 0.  1.
      622    2    1    2    0    0  0.21348554032E-01 -0.85270346001E-02  0.11296544465E+02  0.11297102031E+02  0.10985887801E+00 0.  0.
       11    1    1    2    0    0 -0.11490459092E-01 -0.56552765230E-02  0.70277515769E+00  0.70289202321E+00  0.51109989000E-03 0. -1.
     -623    1    1    2    0    0 -0.98580949403E-02  0.14182311123E-01  0.68036594583E-03  0.25126705946E+02  0.25126700000E+02 0.  1.
     -611    1    3    3    0    0 -0.19112173995E-01 -0.49040792517E-01  0.59729288389E+01  0.59731691077E+01  0.10000000000E-01 0. -1.
      611    1    3    3    0    0  0.40460728027E-01  0.40513757917E-01  0.53236156265E+01  0.53239329235E+01  0.10000000000E-01 0.  1.
</event>
<event>
 7   0  0.6206631E-02  0.9118800E+02  0.7818608E-02  0.1180000E+00
       11   -1    0    0    0    0  0.00000000000E+00  0.00000000000E+00  0.11999999989E+02  0.12000000000E+02  0.51109989000E-03 0.  1.
     -623   -1    0    0    0    0  0.00000000000E+00  0.00000000000E+00  0.42561509872E-11  0.25126700000E+02  0.25126700000E+02 0.  1.
      622    2    1    2    0    0 -0.32366356852E-01 -0.39518509871E-01  0.10823854742E+02  0.10824635061E+02  0.11951331577E+00 0.  0.
       11    1    1    2    0    0  0.34033860674E-01  0.39237208818E-01  0.11742164660E+01  0.11753648083E+01  0.51109989000E-03 0.  1.
     -623    1    1    2    0    0 -0.16675038221E-02  0.28130105320E-03  0.19287812327E-02  0.25126700131E+02  0.25126700000E+02 0.  1.
     -611    1    3    3    0    0 -0.53328596845E-01 -0.55071254876E-01  0.10013421238E+02  0.10013719672E+02  0.10000000000E-01 0.  1.
      611    1    3    3    0    0  0.20962239993E-01  0.15552745005E-01  0.81043350391E+00  0.81091538870E+00  0.10000000000E-01 0.  1.
</event>
<event>
 7   0  0.6206631E-02  0.9118800E+02  0.7818608E-02  0.1180000E+00
       11   -1    0    0    0    0  0.00000000000E+00  0.00000000000E+00  0.11999999989E+02  0.12000000000E+02  0.51109989000E-03 0.  1.
     -623   -1    0    0    0    0  0.00000000000E+00  0.00000000000E+00  0.42561509872E-11  0.25126700000E+02  0.25126700000E+02 0.  1.
      622    2    1    2    0    0  0.28408955579E-01  0.15890523549E-01  0.98963722962E+01  0.98970320908E+01  0.10954452531E+00 0.  0.
       11    1    1    2    0    0 -0.25790613488E-01 -0.34127457147E-02  0.21028036765E+01  0.21029646611E+01  0.51109989000E-03 0.  1.
     -623    1    1    2    0    0 -0.26183420909E-02 -0.12477777834E-01  0.82401637893E-03  0.25126703248E+02  0.25126700000E+02 0.  1.
     -611    1    3    3    0    0  0.45011989243E-01  0.31633838232E-01  0.25316450030E+01  0.25322624667E+01  0.10000000000E-01 0. -1.
      611    1    3    3    0    0 -0.16603033664E-01 -0.15743314683E-01  0.73647272932E+01  0.73647696241E+01  0.10000000000E-01 0.  1.
</event>
<event>
 7   0  0.6206631E-02  0.9118800E+02  0.7818608E-02  0.1180000E+00
       11   -1    0    0    0    0  0.00000000000E+00  0.00000000000E+00  0.11999999989E+02  0.12000000000E+02  0.51109989000E-03 0. -1.
     -623   -1    0    0    0    0  0.00000000000E+00  0.00000000000E+00  0.42561509872E-11  0.25126700000E+02  0.25126700000E+02 0.  1.
      622    2    1    2    0    0 -0.33381906336E-02  0.94624465945E-03  0.11994955729E+02  0.11995309699E+02  0.92085766623E-01 0.  0.
       11    1    1    2    0    0  0.16393689658E-02 -0.29256231950E-02  0.32386762020E-02  0.46901011017E-02  0.51109989000E-03 0. -1.
     -623    1    1    2    0    0  0.16988216678E-02  0.19793785356E-02  0.18055839966E-02  0.25126700200E+02  0.25126700000E+02 0.  1.
     -611    1    3    3    0    0 -0.69085841594E-02 -0.12315655421E-02  0.21365414644E+00  0.21400312984E+00  0.10000000000E-01 0.  1.
      611    1    3    3    0    0  0.35703935259E-02  0.21778102015E-02  0.11781301582E+02  0.11781306569E+02  0.10000000000E-01 0. -1.
</event>
<event>
 7   0  0.6206631E-02  0.9118800E+02  0.7818608E-02  0.1180000E+00
       11   -1    0    0    0    0  0.00000000000E+00  0.00000000000E+00  0.11999999989E+02  0.12000000000E+02  0.51109989000E-03 0.  1.
     -623   -1    0    0    0    0  0.00000000000E+00  0.00000000000E+00  0.42561509872E-11  0.25126700000E+02  0.25126700000E+02 0. -1.
      622    2    1    2    0    0 -0.10033576300E-01 -0.12407300324E-01  0.11809370978E+02  0.11809873911E+02  0.10781591853E+00 0.  0.
       11    1    1    2    0    0  0.51722160831E-02  0.11752218481E-01  0.18969083631E+00  0.19012559286E+00  0.51109989000E-03 0.  1.
     -623    1    1    2    0    0  0.48613602168E-02  0.65508184329E-03  0.93817450723E-03  0.25126700496E+02  0.25126700000E+02 0. -1.
     -611    1    3    3    0    0 -0.51292511456E-01  0.14784064189E-01  0.44725322771E+01  0.44728619988E+01  0.10000000000E-01 0. -1.
      611    1    3    3    0    0  0.41258935156E-01 -0.27191364514E-01  0.73368387012E+01  0.73370119121E+01  0.10000000000E-01 0.  1.
</event>
<event>
 7   0  0.6206631E-02  0.9118800E+02  0.7818608E-02  0.1180000E+00
       11   -1    0    0    0    0  0.00000000000E+00  0.00000000000E+00  0.11999999989E+02  0.12000000000E+02  0.51109989000E-03 0.  1.
     -623   -1    0    0    0    0  0.00000000000E+00  0.00000000000E+00  0.42561509872E-11  0.25126700000E+02  0.25126700000E+02 0.  1.
      622    2    1    2    0    0  0.10248767448E-01 -0.12207347516E-01  0.11014908714E+02  0.11015072008E+02  0.57821478593E-01 0.  0.
       11    1    1    2    0    0 -0.10761345919E-01  0.12413999973E-01  0.98479081923E+00  0.98492798357E+00  0.51109989000E-03 0.  1.
     -623    1    1    2    0    0  0.51257847084E-03 -0.20665245770E-03  0.30045607594E-03  0.25126700008E+02  0.25126700000E+02 0.  1.
     -611    1    3    3    0    0  0.21176381146E-01  0.15472847351E-01  0.44854986854E+01  0.44855865062E+01  0.10000000000E-01 0. -1.
      611    1    3    3    0    0 -0.10927613698E-01 -0.27680194867E-01  0.65294100284E+01  0.65294855023E+01  0.10000000000E-01 0.  1.
</event>
<event>
 7   0  0.6206631E-02  0.9118800E+02  0.7818608E-02  0.1180000E+00
       11   -1    0    0    0    0  0.00000000000E+00  0.00000000000E+00  0.11999999989E+02  0.12000000000E+02  0.51109989000E-03 0. -1.
     -623   -1    0    0    0    0  0.00000000000E+00  0.00000000000E+00  0.42561509872E-11  0.25126700000E+02  0.25126700000E+02 0. -1.
      622    2    1    2    0    0  0.15665649238E-01  0.18278911695E-02  0.82652539350E+01  0.82655015272E+01  0.62001067537E-01 0.  0.
       11    1    1    2    0    0 -0.15782981952E-01 -0.13518648618E-02  0.37344648351E+01  0.37344984664E+01  0.51109989000E-03 0. -1.
     -623    1    1    2    0    0  0.11733271403E-03 -0.47602630767E-03  0.28121902264E-03  0.25126700006E+02  0.25126700000E+02 0. -1.
     -611    1    3    3    0    0 -0.33348602700E-02  0.21949040268E-01  0.16252117110E+01  0.16253941021E+01  0.10000000000E-01 0.  1.
      611    1    3    3    0    0  0.19000509508E-01 -0.20121149099E-01  0.66400422240E+01  0.66401074251E+01  0.10000000000E-01 0. -1.
</event>
<event>
 7   0  0.6206631E-02  0.9118800E+02  0.7818608E-02  0.1180000E+00
       11   -1    0    0    0    0  0.00000000000E+00  0.00000000000E+00  0.11999999989E+02  0.12000000000E+02  0.51109989000E-03 0. -1.
     -623   -1    0    0    0    0  0.00000000000E+00  0.00000000000E+00  0.42561509872E-11  0.25126700000E+02  0.25126700000E+02 0. -1.
      622    2    1    2    0    0  0.22131103924E-01 -0.14329749225E+00  0.96553927059E+01  0.96575996850E+01  0.14696738435E+00 0.  0.
       11    1    1    2    0    0 -0.25656077574E-01  0.13634377709E+00  0.23382860654E+01  0.23423983104E+01  0.51109989000E-03 0. -1.
     -623    1    1    2    0    0  0.35249736494E-02  0.69537151548E-02  0.63212177691E-02  0.25126702005E+02  0.25126700000E+02 0. -1.
     -611    1    3    3    0    0  0.73304062859E-01 -0.75510287745E-01  0.34540912257E+01  0.34557085358E+01  0.10000000000E-01 0. -1.
      611    1    3    3    0    0 -0.51172958935E-01 -0.67787204500E-01  0.62013014803E+01  0.62018911492E+01  0.10000000000E-01 0. -1.
</event>
<event>
 7   0  0.6206631E-02  0.9118800E+02  0.7818608E-02  0.1180000E+00
       11   -1    0    0    0    0  0.00000000000E+00  0.00000000000E+00  0.11999999989E+02  0.12000000000E+02  0.51109989000E-03 0. -1.
     -623   -1    0    0    0    0  0.00000000000E+00  0.00000000000E+00  0.42561509872E-11  0.25126700000E+02  0.25126700000E+02 0.  1.
      622    2    1    2    0    0  0.26638563518E-01 -0.17770357478E-02  0.11966070742E+02  0.11967010480E+02  0.14757391970E+00 0.  0.
       11    1    1    2    0    0  0.20934838682E-03 -0.46431850167E-02  0.32641105631E-01  0.32974323249E-01  0.51109989000E-03 0. -1.
     -623    1    1    2    0    0 -0.26847911904E-01  0.64202207646E-02  0.12881417802E-02  0.25126715197E+02  0.25126700000E+02 0.  1.
     -611    1    3    3    0    0  0.33075200090E-02  0.44546675148E-01  0.12946079085E+01  0.12954169147E+01  0.10000000000E-01 0.  1.
      611    1    3    3    0    0  0.23331043509E-01 -0.46323710896E-01  0.10671462833E+02  0.10671593565E+02  0.10000000000E-01 0. -1.
</event>
<event>
 7   0  0.6206631E-02  0.9118800E+02  0.7818608E-02  0.1180000E+00
       11   -1    0    0    0    0  0.00000000000E+00  0.00000000000E+00  0.11999999989E+02  0.12000000000E+02  0.51109989000E-03 0.  1.
     -623   -1    0    0    0    0  0.00000000000E+00  0.00000000000E+00  0.42561509872E-11  0.25126700000E+02  0.25126700000E+02 0.  1.
      622    2    1    2    0    0 -0.91322234343E-02 -0.16036073736E-01  0.11895482676E+02  0.11896231876E+02  0.13222778649E+00 0.  0.
       11    1    1    2    0    0  0.20032712675E-01 -0.57005073758E-03  0.10180504884E+00  0.10376012590E+00  0.51109989000E-03 0.  1.
     -623    1    1    2    0    0 -0.10900489241E-01  0.16606124474E-01  0.27122639562E-02  0.25126707998E+02  0.25126700000E+02 0.  1.
     -611    1    3    3    0    0 -0.29947932019E-01  0.44474163662E-01  0.28790749711E+01  0.28795915542E+01  0.10000000000E-01 0.  1.
      611    1    3    3    0    0  0.20815708585E-01 -0.60510237398E-01  0.90164077052E+01  0.90166403216E+01  0.10000000000E-01 0.  1.
</event>
<event>
 7   0  0.6206631E-02  0.9118800E+02  0.7818608E-02  0.1180000E+00
       11   -1    0    0    0    0  0.00000000000E+00  0.00000000000E+00  0.11999999989E+02  0.12000000000E+02  0.51109989000E-03 0.  1.
     -623   -1    0    0    0    0  0.00000000000E+00  0.00000000000E+00  0.42561509872E-11  0.25126700000E+02  0.25126700000E+02 0.  1.
      622    2    1    2    0    0  0.14011726361E-02  0.17638806275E-02  0.11983728975E+02  0.11984218512E+02  0.10829651992E+00 0.  0.
       11    1    1    2    0    0 -0.24624688481E-02 -0.15070401297E-02  0.15506711247E-01  0.15781452391E-01  0.51109989000E-03 0.  1.
     -623    1    1    2    0    0  0.10612962121E-02 -0.25684049776E-03  0.76430318496E-03  0.25126700035E+02  0.25126700000E+02 0.  1.
     -611    1    3    3    0    0 -0.25528952037E-01  0.29231466327E-01  0.19548619115E+01  0.19552726917E+01  0.10000000000E-01 0.  1.
      611    1    3    3    0    0  0.26930124673E-01 -0.27467585700E-01  0.10028867063E+02  0.10028945821E+02  0.10000000000E-01 0.  1.
</event>
<event>
 7   0  0.6206631E-02  0.9118800E+02  0.7818608E-02  0.1180000E+00
       11   -1    0    0    0    0  0.00000000000E+00  0.00000000000E+00  0.11999999989E+02  0.12000000000E+02  0.51109989000E-03 0.  1.
     -623   -1    0    0    0    0  0.00000000000E+00  0.00000000000E+00  0.42561509872E-11  0.25126700000E+02  0.25126700000E+02 0. -1.
      622    2    1    2    0    0  0.16552062913E-01 -0.15457791283E-01  0.10858402670E+02  0.10858788235E+02  0.88659241176E-01 0.  0.
       11    1    1    2    0    0 -0.21118722727E-01  0.14063535496E-01  0.11409290920E+01  0.11412113028E+01  0.51109989000E-03 0.  1.
     -623    1    1    2    0    0  0.45666598140E-02  0.13942557880E-02  0.66822686433E-03  0.25126700463E+02  0.25126700000E+02 0. -1.
     -611    1    3    3    0    0  0.19229722762E-01 -0.35816359534E-01  0.24719972279E+01  0.24723516919E+01  0.10000000000E-01 0. -1.
      611    1    3    3    0    0 -0.26776598490E-02  0.20358568251E-01  0.83864054424E+01  0.83864365427E+01  0.10000000000E-01 0.  1.
</event>
<event>
 7   0  0.6206631E-02  0.9118800E+02  0.7818608E-02  0.1180000E+00
       11   -1    0    0    0    0  0.00000000000E+00  0.00000000000E+00  0.11999999989E+02  0.12000000000E+02  0.51109989000E-03 0. -1.
     -623   -1    0    0    0    0  0.00000000000E+00  0.00000000000E+00  0.42561509872E-11  0.25126700000E+02  0.25126700000E+02 0.  1.
      622    2    1    2    0    0 -0.16855660540E-01 -0.37880876642E-01  0.11769020141E+02  0.11769752546E+02  0.12458262900E+00 0.  0.
       11    1    1    2    0    0  0.14651547558E-01  0.32712090175E-01  0.22743895016E+00  0.23024657644E+00  0.51109989000E-03 0. -1.
     -623    1    1    2    0    0  0.22041129824E-02  0.51687864672E-02  0.35408978069E-02  0.25126700878E+02  0.25126700000E+02 0.  1.
     -611    1    3    3    0    0 -0.26613449841E-01  0.41442988729E-01  0.40337343089E+01  0.40340473810E+01  0.10000000000E-01 0.  1.
      611    1    3    3    0    0  0.97577893012E-02 -0.79323865371E-01  0.77352858323E+01  0.77357051648E+01  0.10000000000E-01 0. -1.
</event>
<event>
 7   0  0.6206631E-02  0.9118800E+02  0.7818608E-02  0.1180000E+00
       11   -1    0    0    0    0  0.00000000000E+00  0.00000000000E+00  0.11999999989E+02  0.12000000000E+02  0.51109989000E-03 0. -1.
     -623   -1    0    0    0    0  0.00000000000E+00  0.00000000000E+00  0.42561509872E-11  0.25126700000E+02  0.25126700000E+02 0.  1.
      622    2    1    2    0    0 -0.12741662492E-01  0.30519307945E-02  0.11800183788E+02  0.11800980336E+02  0.13648366760E+00 0.  0.
       11    1    1    2    0    0  0.14672455140E-01 -0.13585241868E-01  0.19800957442E+00  0.19901731714E+00  0.51109989000E-03 0. -1.
     -623    1    1    2    0    0 -0.19307926473E-02  0.10533311074E-01  0.18066266126E-02  0.25126702347E+02  0.25126700000E+02 0.  1.
     -611    1    3    3    0    0 -0.22318213105E-01  0.61902788250E-01  0.39233676573E+01  0.39239321901E+01  0.10000000000E-01 0. -1.
      611    1    3    3    0    0  0.95765506122E-02 -0.58850857455E-01  0.78768161308E+01  0.78770481458E+01  0.10000000000E-01 0.  1.
</event>
<event>
 7   0  0.6206631E-02  0.9118800E+02  0.7818608E-02  0.1180000E+00
       11   -1    0    0    0    0  0.00000000000E+00  0.00000000000E+00  0.11999999989E+02  0.12000000000E+02  0.51109989000E-03 0.  1.
     -623   -1    0    0    0    0  0.00000000000E+00  0.00000000000E+00  0.42561509872E-11  0.25126700000E+02  0.25126700000E+02 0. -1.
      622    2    1    2    0    0 -0.82866123870E-02  0.20813438261E-02  0.11562209711E+02  0.11562416567E+02  0.68632848056E-01 0.  0.
       11    1    1    2    0    0  0.14757197543E-02 -0.16231114396E-02  0.43757670736E+00  0.43758250455E+00  0.51109989000E-03 0.  1.
     -623    1    1    2    0    0  0.68108926328E-02 -0.45823238647E-03  0.21357048441E-03  0.25126700928E+02  0.25126700000E+02 0. -1.
     -611    1    3    3    0    0  0.25217457373E-01 -0.13500118921E-01  0.58632503704E+01  0.58633286689E+01  0.10000000000E-01 0.  1.
      611    1    3    3    0    0 -0.33504069760E-01  0.15581462747E-01  0.56989593408E+01  0.56990878983E+01  0.10000000000E-01 0.  1.
</event>
<event>
 7   0  0.6206631E-02  0.9118800E+02  0.7818608E-02  0.1180000E+00
       11   -1    0    0    0    0  0.00000000000E+00  0.00000000000E+00  0.11999999989E+02  0.12000000000E+02  0.51109989000E-03 0.  1.
     -623   -1    0    0    0    0  0.00000000000E+00  0.00000000000E+00  0.42561509872E-11  0.25126700000E+02  0.25126700000E+02 0. -1.
      622    2    1    2    0    0  0.63929616118E-01 -0.49226966616E-01  0.50856793149E+01  0.50867682067E+01  0.67575176904E-01 0.  0.
       11    1    1    2    0    0 -0.93439047515E-01  0.27770861832E-01  0.69125179454E+01  0.69132052395E+01  0.51109989000E-03 0.  1.
     -623    1    1    2    0    0  0.29509431396E-01  0.21456104784E-01  0.18027288097E-02  0.25126726554E+02  0.25126700000E+02 0. -1.
     -611    1    3    3    0    0  0.42290281843E-01  0.26982564747E-03  0.13862873121E+01  0.13869682954E+01  0.10000000000E-01 0. -1.
      611    1    3    3    0    0  0.21639334275E-01 -0.49496792263E-01  0.36993920027E+01  0.36997999112E+01  0.10000000000E-01 0.  1.
</event>
<event>
 7   0  0.6206631E-02  0.9118800E+02  0.7818608E-02  0.1180000E+00
       11   -1    0    0    0    0  0.00000000000E+00  0.00000000000E+00  0.11999999989E+02  0.12000000000E+02  0.51109989000E-03 0. -1.
     -623   -1    0    0    0    0  0.00000000000E+00  0.00000000000E+00  0.42561509872E-11  0.25126700000E+02  0.25126700000E+02 0.  1.
      622    2    1    2    0    0  0.76607363603E-02  0.21423268165E-01  0.52338115930E+01  0.52348573045E+01  0.10212523830E+00 0.  0.
       11    1    1    2    0    0 -0.10299653220E+00  0.15296233322E+00  0.67618422447E+01  0.67643563304E+01  0.51109989000E-03 0. -1.
     -623    1    1    2    0    0  0.95335795835E-01 -0.17438560139E+00  0.43461514752E-02  0.25127486365E+02  0.25126700000E+02 0.  1.
     -611    1    3    3    0    0  0.43236141158E-02  0.72887745361E-02  0.50832193611E+01  0.50832362618E+01  0.10000000000E-01 0. -1.
      611    1    3    3    0    0  0.33371222445E-02  0.14134493629E-01  0.15059223181E+00  0.15162104266E+00  0.10000000000E-01 0. -1.
</event>
<event>
 7   0  0.6206631E-02  0.9118800E+02  0.7818608E-02  0.1180000E+00
       11   -1    0    0    0    0  0.00000000000E+00  0.00000000000E+00  0.11999999989E+02  0.12000000000E+02  0.51109989000E-03 0.  1.
     -623   -1    0    0    0    0  0.00000000000E+00  0.00000000000E+00  0.42561509872E-11  0.25126700000E+02  0.25126700000E+02 0.  1.
      622    2    1    2    0    0  0.16655349872E-02 -0.38251632464E-02  0.11861407263E+02  0.11861641762E+02  0.74468940748E-01 0.  0.
       11    1    1    2    0    0 -0.15998951880E-02  0.29049877823E-02  0.13831752244E+00  0.13835821932E+00  0.51109989000E-03 0.  1.
     -623    1    1    2    0    0 -0.65639799124E-04  0.92017546414E-03  0.27520335495E-03  0.25126700018E+02  0.25126700000E+02 0.  1.
     -611    1    3    3    0    0 -0.21074747572E-01  0.24730963253E-01  0.72261884706E+01  0.72262684407E+01  0.10000000000E-01 0.  1.
      611    1    3    3    0    0  0.22740282560E-01 -0.28556126500E-01  0.46352187927E+01  0.46353733215E+01  0.10000000000E-01 0. -1.
</event>
<event>
 7   0  0.6206631E-02  0.9118800E+02  0.7818608E-02  0.1180000E+00
       11   -1    0    0    0    0  0.00000000000E+00  0.00000000000E+00  0.11999999989E+02  0.12000000000E+02  0.51109989000E-03 0.  1.
     -623   -1    0    0    0    0  0.00000000000E+00  0.00000000000E+00  0.42561509872E-11  0.25126700000E+02  0.25126700000E+02 0. -1.
      622    2    1    2    0    0  0.95412439294E-01 -0.10229274367E+00  0.87677999186E+01  0.87694648489E+01  0.98137586888E-01 0.  0.
       11    1    1    2    0    0 -0.63044045416E-01  0.37430411318E-01  0.32295982788E+01  0.32304304498E+01  0.51109989000E-03 0.  1.
     -623    1    1    2    0    0 -0.32368393878E-01  0.64862332350E-01  0.26017917470E-02  0.25126804701E+02  0.25126700000E+02 0. -1.
     -611    1    3    3    0    0  0.83872718657E-01 -0.12039964615E+00  0.74358916901E+01  0.74373460277E+01  0.10000000000E-01 0.  1.
      611    1    3    3    0    0  0.11539720636E-01  0.18106902480E-01  0.13319082284E+01  0.13321188213E+01  0.10000000000E-01 0. -1.
</event>
<event>
 7   0  0.6206631E-02  0.9118800E+02  0.7818608E-02  0.1180000E+00
       11   -1    0    0    0    0  0.00000000000E+00  0.00000000000E+00  0.11999999989E+02  0.12000000000E+02  0.51109989000E-03 0. -1.
     -623   -1    0    0    0    0  0.00000000000E+00  0.00000000000E+00  0.42561509872E-11  0.25126700000E+02  0.25126700000E+02 0. -1.
      622    2    1    2    0    0  0.14488757005E-01  0.77204925389E-02  0.10668234205E+02  0.10668284854E+02  0.28480794508E-01 0.  0.
       11    1    1    2    0    0 -0.14801643584E-01 -0.17352823896E-01  0.13315178679E+01  0.13317132961E+01  0.51109989000E-03 0. -1.
     -623    1    1    2    0    0  0.31288657934E-03  0.96323313566E-02  0.24791631342E-03  0.25126701849E+02  0.25126700000E+02 0. -1.
     -611    1    3    3    0    0 -0.14080952963E-03 -0.29504025973E-02  0.21222889317E+01  0.21223145465E+01  0.10000000000E-01 0. -1.
      611    1    3    3    0    0  0.14629566534E-01  0.10670895136E-01  0.85459452729E+01  0.85459703077E+01  0.10000000000E-01 0. -1.
</event>
<event>
 7   0  0.6206631E-02  0.9118800E+02  0.7818608E-02  0.1180000E+00
       11   -1    0    0    0    0  0.00000000000E+00  0.00000000000E+00  0.11999999989E+02  0.12000000000E+02  0.51109989000E-03 0. -1.
     -623   -1    0    0    0    0  0.00000000000E+00  0.00000000000E+00  0.42561509872E-11  0.25126700000E+02  0.25126700000E+02 0.  1.
      622    2    1    2    0    0  0.16343600438E-01  0.24926407840E-01  0.60417611297E+01  0.60434567642E+01  0.14001311459E+00 0.  0.
       11    1    1    2    0    0 -0.66413934398E-02 -0.36188035099E-01  0.59564251206E+01  0.59565387735E+01  0.51109989000E-03 0. -1.
     -623    1    1    2    0    0 -0.97022069980E-02  0.11261627260E-01  0.18137387779E-02  0.25126704462E+02  0.25126700000E+02 0.  1.
     -611    1    3    3    0    0  0.15438575203E-01  0.74689266317E-01  0.48562898050E+01  0.48568989598E+01  0.10000000000E-01 0. -1.
      611    1    3    3    0    0  0.90502523490E-03 -0.49762858477E-01  0.11854713248E+01  0.11865578043E+01  0.10000000000E-01 0.  1.
</event>
<event>
 7   0  0.6206631E-02  0.9118800E+02  0.7818608E-02  0.1180000E+00
       11   -1    0    0    0    0  0.00000000000E+00  0.00000000000E+00  0.11999999989E+02  0.12000000000E+02  0.51109989000E-03 0. -1.
     -623   -1    0    0    0    0  0.00000000000E+00  0.00000000000E+00  0.42561509872E-11  0.25126700000E+02  0.25126700000E+02 0. -1.
      622    2    1    2    0    0 -0.11341817039E-01 -0.55791878437E-01  0.11322497868E+02  0.11323068679E+02  0.98412251967E-01 0.  0.
       11    1    1    2    0    0 -0.31092819772E-01  0.51717870769E-02  0.67610994082E+00  0.67684446081E+00  0.51109989000E-03 0. -1.
     -623    1    1    2    0    0  0.42434636811E-01  0.50620091360E-01  0.13921804987E-02  0.25126786860E+02  0.25126700000E+02 0. -1.
     -611    1    3    3    0    0  0.26360288415E-01 -0.63379282270E-01  0.86144935921E+01  0.86147728726E+01  0.10000000000E-01 0. -1.
      611    1    3    3    0    0 -0.37702105455E-01  0.75874038330E-02  0.27080042757E+01  0.27082958064E+01  0.10000000000E-01 0.  1.
</event>
<event>
 7   0  0.6206631E-02  0.9118800E+02  0.7818608E-02  0.1180000E+00
       11   -1    0    0    0    0  0.00000000000E+00  0.00000000000E+00  0.11999999989E+02  0.12000000000E+02  0.51109989000E-03 0.  1.
     -623   -1    0    0    0    0  0.00000000000E+00  0.00000000000E+00  0.42561509872E-11  0.25126700000E+02  0.25126700000E+02 0. -1.
      622    2    1    2    0    0 -0.18518946596E-01 -0.49793839812E-01  0.11906098137E+02  0.11907129563E+02  0.14744225858E+00 0.  0.
       11    1    1    2    0    0  0.73574176827E-02  0.25955745529E-01  0.88849139361E-01  0.92856142012E-01  0.51109989000E-03 0.  1.
     -623    1    1    2    0    0  0.11161528913E-01  0.23838094283E-01  0.50527132496E-02  0.25126714295E+02  0.25126700000E+02 0. -1.
     -611    1    3    3    0    0 -0.67428738382E-01 -0.58468642063E-01  0.98415038060E+01  0.98419135528E+01  0.10000000000E-01 0.  1.
      611    1    3    3    0    0  0.48909791786E-01  0.86748022511E-02  0.20645943305E+01  0.20652160103E+01  0.10000000000E-01 0. -1.
</event>
<event>
 7   0  0.6206631E-02  0.9118800E+02  0.7818608E-02  0.1180000E+00
       11   -1    0    0    0    0  0.00000000000E+00  0.00000000000E+00  0.11999999989E+02  0.12000000000E+02  0.51109989000E-03 0.  1.
     -623   -1    0    0    0    0  0.00000000000E+00  0.00000000000E+00  0.42561509872E-11  0.25126700000E+02  0.25126700000E+02 0. -1.
      622    2    1    2    0    0 -0.52617930679E-01  0.14656648269E-01  0.89853556825E+01  0.89860669181E+01  0.98987129679E-01 0.  0.
       11    1    1    2    0    0  0.54887131493E-01  0.35238229371E-02  0.30134244479E+01  0.30139263725E+01  0.51109989000E-03 0.  1.
     -623    1    1    2    0    0 -0.22692008138E-02 -0.18180471206E-01  0.12198586860E-02  0.25126706709E+02  0.25126700000E+02 0. -1.
     -611    1    3    3    0    0 -0.12016669193E-01 -0.76242648120E-02  0.73605740335E+01  0.73605945841E+01  0.10000000000E-01 0. -1.
      611    1    3    3    0    0 -0.40601261486E-01  0.22280913081E-01  0.16247816490E+01  0.16254723340E+01  0.10000000000E-01 0.  1.
</event>
<event>
 7   0  0.6206631E-02  0.9118800E+02  0.7818608E-02  0.1180000E+00
       11   -1    0    0    0    0  0.00000000000E+00  0.00000000000E+00  0.11999999989E+02  0.12000000000E+02  0.51109989000E-03 0. -1.
     -623   -1    0    0    0    0  0.00000000000E+00  0.00000000000E+00  0.42561509872E-11  0.25126700000E+02  0.25126700000E+02 0.  1.
      622    2    1    2    0    0 -0.48219166398E-02 -0.13411241057E-01  0.11967939575E+02  0.11968283018E+02  0.89541122125E-01 0.  0.
       11    1    1    2    0    0  0.21086849517E-01 -0.92065515412E-02  0.21798569078E-01  0.31699442437E-01  0.51109989000E-03 0. -1.
     -623    1    1    2    0    0 -0.16264932877E-01  0.22617792598E-01  0.10261844807E-01  0.25126717539E+02  0.25126700000E+02 0.  1.
     -611    1    3    3    0    0 -0.35703196679E-02 -0.33645632387E-02  0.18509097797E+00  0.18542582775E+00  0.10000000000E-01 0. -1.
      611    1    3    3    0    0 -0.12515969719E-02 -0.10046677818E-01  0.11782848597E+02  0.11782857190E+02  0.10000000000E-01 0. -1.
</event>
<event>
 7   0  0.6206631E-02  0.9118800E+02  0.7818608E-02  0.1180000E+00
       11   -1    0    0    0    0  0.00000000000E+00  0.00000000000E+00  0.11999999989E+02  0.12000000000E+02  0.51109989000E-03 0. -1.
     -623   -1    0    0    0    0  0.00000000000E+00  0.00000000000E+00  0.42561509872E-11  0.25126700000E+02  0.25126700000E+02 0.  1.
      622    2    1    2    0    0 -0.17241878756E-01 -0.16260512819E-02  0.11739448531E+02  0.11739824020E+02  0.92283652656E-01 0.  0.
       11    1    1    2    0    0  0.15804056188E-01  0.20097207069E-01  0.25890931118E+00  0.26016909609E+00  0.51109989000E-03 0. -1.
     -623    1    1    2    0    0  0.14378225672E-02 -0.18471155787E-01  0.16421466883E-02  0.25126706884E+02  0.25126700000E+02 0.  1.
     -611    1    3    3    0    0  0.22908564362E-02  0.31752560337E-01  0.18904080107E+01  0.18907024938E+01  0.10000000000E-01 0.  1.
      611    1    3    3    0    0 -0.19532735192E-01 -0.33378611619E-01  0.98490405206E+01  0.98491215261E+01  0.10000000000E-01 0. -1.
</event>
<event>
 6   0  0.6206631E-02  0.9118800E+02  0.7818608E-02  0.1180000E+00
       11   -1    0    0    0    0  0.00000000000E+00  0.00000000000E+00  0.11999999989E+02  0.12000000000E+02  0.51109989000E-03 0.  1.
     -623   -1    0    0    0    0  0.00000000000E+00  0.00000000000E+00  0.42561509872E-11  0.25126700000E+02  0.25126700000E+02 0. -1.
       11    1    1    2    0    0 -0.25828971272E-02  0.23614311143E-02  0.79186484337E-01  0.79265429030E-01  0.51109989000E-03 0.  1.
     -623    1    1    2    0    0 -0.16821297177E-03 -0.24326016515E-02  0.24521962623E-02  0.25126700238E+02  0.25126700000E+02 0. -1.
     -611    1    1    2    0    0 -0.19788479935E-01 -0.91202414118E-01  0.95834716919E+01  0.95839312985E+01  0.10000000000E-01 0.  1.
      611    1    1    2    0    0  0.22539590034E-01  0.91273584655E-01  0.23348896166E+01  0.23368030345E+01  0.10000000000E-01 0. -1.
</event>
<event>
 7   0  0.6206631E-02  0.9118800E+02  0.7818608E-02  0.1180000E+00
       11   -1    0    0    0    0  0.00000000000E+00  0.00000000000E+00  0.11999999989E+02  0.12000000000E+02  0.51109989000E-03 0. -1.
     -623   -1    0    0    0    0  0.00000000000E+00  0.00000000000E+00  0.42561509872E-11  0.25126700000E+02  0.25126700000E+02 0.  1.
      622    2    1    2    0    0  0.00000000000E+00  0.00000000000E+00  0.11997476269E+02  0.11998191013E+02  0.13096093407E+00 0.  0.
       11    1    1    2    0    0 -0.33432723963E-03  0.15121369043E-02 -0.78838478587E-03  0.18113824641E-02  0.51109989000E-03 0. -1.
     -623    1    1    2    0    0  0.33432723963E-03 -0.15121369043E-02  0.33147668749E-02  0.25126700266E+02  0.25126700000E+02 0.  1.
     -611    1    3    3    0    0  0.54272849499E-01  0.21713065919E-01  0.85421369946E+01  0.85423428540E+01  0.10000000000E-01 0. -1.
      611    1    3    3    0    0 -0.54272849499E-01 -0.21713065919E-01  0.34553392743E+01  0.34558481593E+01  0.10000000000E-01 0.  1.
</event>
<event>
 7   0  0.6206631E-02  0.9118800E+02  0.7818608E-02  0.1180000E+00
       11   -1    0    0    0    0  0.00000000000E+00  0.00000000000E+00  0.11999999989E+02  0.12000000000E+02  0.51109989000E-03 0. -1.
     -623   -1    0    0    0    0  0.00000000000E+00  0.00000000000E+00  0.42561509872E-11  0.25126700000E+02  0.25126700000E+02 0. -1.
      622    2    1    2    0    0  0.29929547777E-02 -0.33223015900E-03  0.11973716466E+02  0.11973847411E+02  0.55917330313E-01 0.  0.
       11    1    1    2    0    0 -0.33579239648E-02 -0.43000947576E-03  0.25927500165E-01  0.26152572521E-01  0.51109989000E-03 0. -1.
     -623    1    1    2    0    0  0.36496918715E-03  0.76223963476E-03  0.35602330355E-03  0.25126700017E+02  0.25126700000E+02 0. -1.
     -611    1    3    3    0    0  0.26143733833E-01  0.74913641233E-02  0.53725289604E+01  0.53726070995E+01  0.10000000000E-01 0.  1.
      611    1    3    3    0    0 -0.23150779055E-01 -0.78235942823E-02  0.66011875053E+01  0.66012403113E+01  0.10000000000E-01 0. -1.
</event>
<event>
 7   0  0.6206631E-02  0.9118800E+02  0.7818608E-02  0.1180000E+00
       11   -1    0    0    0    0  0.00000000000E+00  0.00000000000E+00  0.11999999989E+02  0.12000000000E+02  0.51109989000E-03 0.  1.
     -623   -1    0    0    0    0  0.00000000000E+00  0.00000000000E+00  0.42561509872E-11  0.25126700000E+02  0.25126700000E+02 0.  1.
      622    2    1    2    0    0 -0.13832652883E-01 -0.17188055353E-01  0.22900827415E+01  0.22910120130E+01  0.61402842313E-01 0.  0.
       11    1    1    2    0    0  0.17230375174E-01  0.61763701682E-03  0.97089669531E+01  0.97089822755E+01  0.51109989000E-03 0.  1.
     -623    1    1    2    0    0 -0.33977222912E-02  0.16570418336E-01  0.95029449786E-03  0.25126705712E+02  0.25126700000E+02 0.  1.
     -611    1    3    3    0    0  0.11326501970E-01  0.10374945493E-01  0.30307755633E+00  0.30363124722E+00  0.10000000000E-01 0.  1.
      611    1    3    3    0    0 -0.25159154853E-01 -0.27563000846E-01  0.19870051852E+01  0.19873807658E+01  0.10000000000E-01 0. -1.
</event>
<event>
 7   0  0.6206631E-02  0.9118800E+02  0.7818608E-02  0.1180000E+00
       11   -1    0    0    0    0  0.00000000000E+00  0.00000000000E+00  0.11999999989E+02  0.12000000000E+02  0.51109989000E-03 0.  1.
     -623   -1    0    0    0    0  0.00000000000E+00  0.00000000000E+00  0.42561509872E-11  0.25126700000E+02  0.25126700000E+02 0.  1.
      622    2    1    2    0    0  0.57589875333E-01 -0.16118507705E-01  0.95553960960E+01  0.95561342779E+01  0.10262253560E+00 0.  0.
       11    1    1    2    0    0 -0.67610815406E-01  0.15311200052E-01  0.24428801919E+01  0.24438636518E+01  0.51109989000E-03 0.  1.
     -623    1    1    2    0    0  0.10020940073E-01  0.80730765324E-03  0.17237011825E-02  0.25126702070E+02  0.25126700000E+02 0.  1.
     -611    1    3    3    0    0  0.59110982926E-01 -0.21123907824E-01  0.94341357541E+01  0.94343498851E+01  0.10000000000E-01 0.  1.
      611    1    3    3    0    0 -0.15211075935E-02  0.50054001190E-02  0.12126034194E+00  0.12178439279E+00  0.10000000000E-01 0.  1.
</event>
<event>
 7   0  0.6206631E-02  0.9118800E+02  0.7818608E-02  0.1180000E+00
       11   -1    0    0    0    0  0.00000000000E+00  0.00000000000E+00  0.11999999989E+02  0.12000000000E+02  0.51109989000E-03 0.  1.
     -623   -1    0    0    0    0  0.00000000000E+00  0.00000000000E+00  0.42561509872E-11  0.25126700000E+02  0.25126700000E+02 0.  1.
      622    2    1    2    0    0 -0.10572087009E+00  0.10661172231E+00  0.70416674130E+01  0.70436175856E+01  0.70183872623E-01 0.  0.
       11    1    1    2    0    0  0.10568362424E+00 -0.11180974437E+00  0.49539930243E+01  0.49563815020E+01  0.51109989000E-03 0.  1.
     -623    1    1    2    0    0  0.37245853290E-04  0.51980220607E-02  0.43395519078E-02  0.25126700912E+02  0.25126700000E+02 0.  1.
     -611    1    3    3    0    0 -0.87104505821E-03  0.10913606523E-01  0.23765467452E+00  0.23811679875E+00  0.10000000000E-01 0.  1.
      611    1    3    3    0    0 -0.10484982503E+00  0.95698115784E-01  0.68040127384E+01  0.68055007869E+01  0.10000000000E-01 0.  1.
</event>
<event>
 7   0  0.6206631E-02  0.9118800E+02  0.7818608E-02  0.1180000E+00
       11   -1    0    0    0    0  0.00000000000E+00  0.00000000000E+00  0.11999999989E+02  0.12000000000E+02  0.51109989000E-03 0. -1.
     -623   -1    0    0    0    0  0.00000000000E+00  0.00000000000E+00  0.42561509872E-11  0.25126700000E+02  0.25126700000E+02 0. -1.
      622    2    1    2    0    0 -0.72034874828E-03  0.11868212395E-02  0.11932383600E+02  0.11932904970E+02  0.11153794331E+00 0.  0.
       11    1    1    2    0    0 -0.20860781148E-03 -0.14300044884E-03  0.67092562344E-01  0.67094985740E-01  0.51109989000E-03 0. -1.
     -623    1    1    2    0    0  0.92895655975E-03 -0.10438207906E-02  0.52382660898E-03  0.25126700044E+02  0.25126700000E+02 0. -1.
     -611    1    3    3    0    0 -0.51551016318E-02  0.55227616756E-01  0.62063322440E+01  0.62065881600E+01  0.10000000000E-01 0.  1.
      611    1    3    3    0    0  0.44347528835E-02 -0.54040795517E-01  0.57260513562E+01  0.57263168100E+01  0.10000000000E-01 0. -1.
</event>
<event>
 7   0  0.6206631E-02  0.9118800E+02  0.7818608E-02  0.1180000E+00
       11   -1    0    0    0    0  0.00000000000E+00  0.00000000000E+00  0.11999999989E+02  0.12000000000E+02  0.51109989000E-03 0. -1.
     -623   -1    0    0    0    0  0.00000000000E+00  0.00000000000E+00  0.42561509872E-11  0.25126700000E+02  0.25126700000E+02 0.  1.
      622    2    1    2    0    0 -0.84379869477E-02 -0.25154235900E-02  0.11956678799E+02  0.11956901159E+02  0.72387151768E-01 0.  0.
       11    1    1    2    0    0  0.11055319253E-01 -0.33970009919E-02  0.41513996029E-01  0.43097944138E-01  0.51109989000E-03 0. -1.
     -623    1    1    2    0    0 -0.26173323052E-02  0.59124245819E-02  0.18071942757E-02  0.25126700897E+02  0.25126700000E+02 0.  1.
     -611    1    3    3    0    0 -0.34914557787E-01  0.11985286365E-01  0.48301342472E+01  0.48302856561E+01  0.10000000000E-01 0.  1.
      611    1    3    3    0    0  0.26476570839E-01 -0.14500709955E-01  0.71265445516E+01  0.71266155029E+01  0.10000000000E-01 0. -1.
</event>
<event>
 7   0  0.6206631E-02  0.9118800E+02  0.7818608E-02  0.1180000E+00
       11   -1    0    0    0    0  0.00000000000E+00  0.00000000000E+00  0.11999999989E+02  0.12000000000E+02  0.51109989000E-03 0.  1.
     -623   -1    0    0    0    0  0.00000000000E+00  0.00000000000E+00  0.42561509872E-11  0.25126700000E+02  0.25126700000E+02 0. -1.
      622    2    1    2    0    0  0.46187281606E-01  0.53033153637E-01  0.78058115471E+01  0.78061980412E+01  0.32987416609E-01 0.  0.
       11    1    1    2    0    0 -0.30108068724E-01 -0.63155190963E-01  0.41932110754E+01  0.41937947563E+01  0.51109989000E-03 0.  1.
     -623    1    1    2    0    0 -0.16079212882E-01  0.10122037327E-01  0.97736669024E-03  0.25126707203E+02  0.25126700000E+02 0. -1.
     -611    1    3    3    0    0  0.13296685778E-01  0.31532936616E-01  0.29052442282E+01  0.29054629843E+01  0.10000000000E-01 0.  1.
      611    1    3    3    0    0  0.32890595828E-01  0.21500217021E-01  0.49005673190E+01  0.49007350569E+01  0.10000000000E-01 0.  1.
</event>
<event>
 7   0  0.6206631E-02  0.9118800E+02  0.7818608E-02  0.1180000E+00
       11   -1    0    0    0    0  0.00000000000E+00  0.00000000000E+00  0.11999999989E+02  0.12000000000E+02  0.51109989000E-03 0. -1.
     -623   -1    0    0    0    0  0.00000000000E+00  0.00000000000E+00  0.42561509872E-11  0.25126700000E+02  0.25126700000E+02 0.  1.
      622    2    1    2    0    0  0.35563961408E-02 -0.19282922258E-02  0.11727065232E+02  0.11727301037E+02  0.74258304614E-01 0.  0.
       11    1    1    2    0    0 -0.21687098379E-02  0.39952515207E-02  0.27266046634E+00  0.27269883840E+00  0.51109989000E-03 0. -1.
     -623    1    1    2    0    0 -0.13876863030E-02 -0.20669592949E-02  0.27429123539E-03  0.25126700125E+02  0.25126700000E+02 0.  1.
     -611    1    3    3    0    0 -0.72972962922E-02  0.25913626001E-01  0.91222830871E+01  0.91223282931E+01  0.10000000000E-01 0. -1.
      611    1    3    3    0    0  0.10853692433E-01 -0.27841918227E-01  0.26047821445E+01  0.26049727437E+01  0.10000000000E-01 0.  1.
</event>
<event>
 7   0  0.6206631E-02  0.9118800E+02  0.7818608E-02  0.1180000E+00
       11   -1    0    0    0    0  0.00000000000E+00  0.00000000000E+00  0.11999999989E+02  0.12000000000E+02  0.51109989000E-03 0. -1.
     -623   -1    0    0    0    0  0.00000000000E+00  0.00000000000E+00  0.42561509872E-11  0.25126700000E+02  0.25126700000E+02 0.  1.
      622    2    1    2    0    0 -0.68270327874E-02  0.31017765476E-02  0.11320207418E+02  0.11320597144E+02  0.93634774936E-01 0.  0.
       11    1    1    2    0    0 -0.43238186970E-02 -0.74435866436E-02  0.67934527327E+00  0.67940000289E+00  0.51109989000E-03 0. -1.
     -623    1    1    2    0    0  0.11150851484E-01  0.43418100960E-02  0.44729770730E-03  0.25126702853E+02  0.25126700000E+02 0.  1.
     -611    1    3    3    0    0  0.22424072866E-02  0.16427427282E-02  0.14100580862E+00  0.14138728747E+00  0.10000000000E-01 0. -1.
      611    1    3    3    0    0 -0.90694400740E-02  0.14590338194E-02  0.11179201610E+02  0.11179209856E+02  0.10000000000E-01 0. -1.
</event>
<event>
 7   0  0.6206631E-02  0.9118800E+02  0.7818608E-02  0.1180000E+00
       11   -1    0    0    0    0  0.00000000000E+00  0.00000000000E+00  0.11999999989E+02  0.12000000000E+02  0.51109989000E-03 0. -1.
     -623   -1    0    0    0    0  0.00000000000E+00  0.00000000000E+00  0.42561509872E-11  0.25126700000E+02  0.25126700000E+02 0. -1.
      622    2    1    2    0    0  0.21407283079E-02 -0.82017250578E-02  0.11279744096E+02  0.11280259593E+02  0.10750697511E+00 0.  0.
       11    1    1    2    0    0 -0.14462800511E-02  0.19619183545E-02  0.71973530908E+00  0.71973961764E+00  0.51109989000E-03 0. -1.
     -623    1    1    2    0    0 -0.69444825678E-03  0.62398067033E-02  0.52058385347E-03  0.25126700790E+02  0.25126700000E+02 0. -1.
     -611    1    3    3    0    0 -0.65626180512E-02  0.45871565216E-01  0.68788970931E+01  0.68790604363E+01  0.10000000000E-01 0. -1.
      611    1    3    3    0    0  0.87033463591E-02 -0.54073290274E-01  0.44008470031E+01  0.44011991563E+01  0.10000000000E-01 0.  1.
</event>
<event>
 7   0  0.6206631E-02  0.9118800E+02  0.7818608E-02  0.1180000E+00
       11   -1    0    0    0    0  0.00000000000E+00  0.00000000000E+00  0.11999999989E+02  0.12000000000E+02  0.51109989000E-03 0. -1.
     -623   -1    0    0    0    0  0.00000000000E+00  0.00000000000E+00  0.42561509872E-11  0.25126700000E+02  0.25126700000E+02 0. -1.
      622    2    1    2    0    0  0.39832760674E-02 -0.11437551439E-01  0.11909215278E+02  0.11910454263E+02  0.17136377509E+00 0.  0.
       11    1    1    2    0    0 -0.56874130400E-02  0.63199982450E-02  0.89139078821E-01  0.89545103948E-01  0.51109989000E-03 0. -1.
     -623    1    1    2    0    0  0.17041369726E-02  0.51175531936E-02  0.16456326678E-02  0.25126700633E+02  0.25126700000E+02 0. -1.
     -611    1    3    3    0    0 -0.10133916307E-01  0.51223685820E-01  0.99844972712E+01  0.99846388178E+01  0.10000000000E-01 0. -1.
      611    1    3    3    0    0  0.14117192374E-01 -0.62661237258E-01  0.19247180064E+01  0.19258154455E+01  0.10000000000E-01 0.  1.
</event>
<event>
 7   0  0.6206631E-02  0.9118800E+02  0.7818608E-02  0.1180000E+00
       11   -1    0    0    0    0  0.00000000000E+00  0.00000000000E+00  0.11999999989E+02  0.12000000000E+02  0.51109989000E-03 0.  1.
     -623   -1    0    0    0    0  0.00000000000E+00  0.00000000000E+00  0.42561509872E-11  0.25126700000E+02  0.25126700000E+02 0. -1.
      622    2    1    2    0    0 -0.33463375968E-01 -0.96447678721E-01  0.84784735839E+01  0.84797542851E+01  0.10628485379E+00 0.  0.
       11    1    1    2    0    0  0.48305560171E-01  0.88348084890E-01  0.35187994721E+01  0.35202398778E+01  0.51109989000E-03 0.  1.
     -623    1    1    2    0    0 -0.14842184203E-01  0.80995938307E-02  0.27269330251E-02  0.25126705837E+02  0.25126700000E+02 0. -1.
     -611    1    3    3    0    0 -0.57536445598E-01 -0.82465361431E-01  0.43450419145E+01  0.43462167706E+01  0.10000000000E-01 0.  1.
      611    1    3    3    0    0  0.24073069630E-01 -0.13982317290E-01  0.41334316694E+01  0.41335375145E+01  0.10000000000E-01 0. -1.
</event>
<event>
 7   0  0.6206631E-02  0.9118800E+02  0.7818608E-02  0.1180000E+00
       11   -1    0    0    0    0  0.00000000000E+00  0.00000000000E+00  0.11999999989E+02  0.12000000000E+02  0.51109989000E-03 0.  1.
     -623   -1    0    0    0    0  0.00000000000E+00  0.00000000000E+00  0.42561509872E-11  0.25126700000E+02  0.25126700000E+02 0. -1.
      622    2    1    2    0    0 -0.23980009865E-01  0.19462763806E-02  0.11568152864E+02  0.11568330560E+02  0.59434231026E-01 0.  0.
       11    1    1    2    0    0  0.29110945868E-01 -0.40279811196E-03  0.43068563785E+00  0.43166884216E+00  0.51109989000E-03 0.  1.
     -623    1    1    2    0    0 -0.51309360037E-02 -0.15434782686E-02  0.11614873857E-02  0.25126700598E+02  0.25126700000E+02 0. -1.
     -611    1    3    3    0    0 -0.31312395379E-01 -0.13934689010E-01  0.97625161468E+01  0.97625814290E+01  0.10000000000E-01 0.  1.
      611    1    3    3    0    0  0.73323855147E-02  0.15880965391E-01  0.18056367172E+01  0.18057491308E+01  0.10000000000E-01 0. -1.
</event>
<event>
 7   0  0.6206631E-02  0.9118800E+02  0.7818608E-02  0.1180000E+00
       11   -1    0    0    0    0  0.00000000000E+00  0.00000000000E+00  0.11999999989E+02  0.12000000000E+02  0.51109989000E-03 0.  1.
     -623   -1    0    0    0    0  0.00000000000E+00  0.00000000000E+00  0.42561509872E-11  0.25126700000E+02  0.25126700000E+02 0.  1.
      622    2    1    2    0    0 -0.58833193328E-02  0.10247570303E-01  0.11291629433E+02  0.11292098672E+02  0.10226211028E+00 0.  0.
       11    1    1    2    0    0  0.41646990332E-02 -0.11224063864E-01  0.70779981993E+00  0.70790124357E+00  0.51109989000E-03 0.  1.
     -623    1    1    2    0    0  0.17186202996E-02  0.97649356109E-03  0.57073595999E-03  0.25126700084E+02  0.25126700000E+02 0.  1.
     -611    1    3    3    0    0  0.26696275650E-01  0.35652419492E-01  0.87075513103E+01  0.87076709635E+01  0.10000000000E-01 0.  1.
      611    1    3    3    0    0 -0.32579594983E-01 -0.25404849188E-01  0.25840781229E+01  0.25844277087E+01  0.10000000000E-01 0. -1.
</event>
<event>
 7   0  0.6206631E-02  0.9118800E+02  0.7818608E-02  0.1180000E+00
       11   -1    0    0    0    0  0.00000000000E+00  0.00000000000E+00  0.11999999989E+02  0.12000000000E+02  0.51109989000E-03 0. -1.
     -623   -1    0    0    0    0  0.00000000000E+00  0.00000000000E+00  0.42561509872E-11  0.25126700000E+02  0.25126700000E+02 0.  1.
      622    2    1    2    0    0  0.30291788532E-02 -0.39832572933E-02  0.11960795329E+02  0.11961509358E+02  0.13059937538E+00 0.  0.
       11    1    1    2    0    0  0.37079016715E-03 -0.78217849486E-03  0.38476819886E-01  0.38489949080E-01  0.51109989000E-03 0. -1.
     -623    1    1    2    0    0 -0.33999690203E-02  0.47654357882E-02  0.72784061139E-03  0.25126700692E+02  0.25126700000E+02 0.  1.
     -611    1    3    3    0    0  0.53992604284E-01  0.35557115304E-01  0.60283333971E+01  0.60286883363E+01  0.10000000000E-01 0. -1.
      611    1    3    3    0    0 -0.50963425431E-01 -0.39540372597E-01  0.59324619315E+01  0.59328210222E+01  0.10000000000E-01 0.  1.
</event>
<event>
 7   0  0.6206631E-02  0.9118800E+02  0.7818608E-02  0.1180000E+00
       11   -1    0    0    0    0  0.00000000000E+00  0.00000000000E+00  0.11999999989E+02  0.12000000000E+02  0.51109989000E-03 0. -1.
     -623   -1    0    0    0    0  0.00000000000E+00  0.00000000000E+00  0.42561509872E-11  0.25126700000E+02  0.25126700000E+02 0.  1.
      622    2    1    2    0    0 -0.12225141981E-02 -0.23212172677E-02  0.11937696238E+02  0.11937766565E+02  0.40892652176E-01 0.  0.
       11    1    1    2    0    0  0.76640586518E-03  0.70148563469E-02  0.61829507751E-01  0.62232988353E-01  0.51109989000E-03 0. -1.
     -623    1    1    2    0    0  0.45610833296E-03 -0.46936390792E-02  0.47424380123E-03  0.25126700447E+02  0.25126700000E+02 0.  1.
     -611    1    3    3    0    0 -0.15153409420E-01  0.89161614886E-02  0.65839876831E+01  0.65840187526E+01  0.10000000000E-01 0. -1.
      611    1    3    3    0    0  0.13930895222E-01 -0.11237378756E-01  0.53537085546E+01  0.53537478121E+01  0.10000000000E-01 0.  1.
</event>
<event>
 7   0  0.6206631E-02  0.9118800E+02  0.7818608E-02  0.1180000E+00
       11   -1    0    0    0    0  0.00000000000E+00  0.00000000000E+00  0.11999999989E+02  0.12000000000E+02  0.51109989000E-03 0. -1.
     -623   -1    0    0    0    0  0.00000000000E+00  0.00000000000E+00  0.42561509872E-11  0.25126700000E+02  0.25126700000E+02 0.  1.
      622    2    1    2    0    0  0.46966602252E-01 -0.14364644044E-01  0.93205123016E+01  0.93211460189E+01  0.96960484430E-01 0.  0.
       11    1    1    2    0    0 -0.51748999733E-01  0.15947201987E-01  0.26783060438E+01  0.26788534484E+01  0.51109989000E-03 0. -1.
     -623    1    1    2    0    0  0.47823974814E-02 -0.15825579432E-02  0.11816436461E-02  0.25126700533E+02  0.25126700000E+02 0.  1.
     -611    1    3    3    0    0 -0.23797558711E-01 -0.21207718446E-01  0.19714644396E+01  0.19717474807E+01  0.10000000000E-01 0.  1.
      611    1    3    3    0    0  0.70764160963E-01  0.68430744028E-02  0.73490478621E+01  0.73493985382E+01  0.10000000000E-01 0. -1.
</event>
<event>
 7   0  0.6206631E-02  0.9118800E+02  0.7818608E-02  0.1180000E+00
       11   -1    0    0    0    0  0.00000000000E+00  0.00000000000E+00  0.11999999989E+02  0.12000000000E+02  0.51109989000E-03 0.  1.
     -623   -1    0    0    0    0  0.00000000000E+00  0.00000000000E+00  0.42561509872E-11  0.25126700000E+02  0.25126700000E+02 0. -1.
      622    2    1    2    0    0  0.71599384970E-02 -0.69616830427E-03  0.11787752004E+02  0.11787991116E+02  0.74736219950E-01 0.  0.
       11    1    1    2    0    0 -0.65579531140E-02  0.17355347821E-02  0.21189967816E+00  0.21200885279E+00  0.51109989000E-03 0.  1.
     -623    1    1    2    0    0 -0.60198538306E-03 -0.10393664778E-02  0.34830723842E-03  0.25126700031E+02  0.25126700000E+02 0. -1.
     -611    1    3    3    0    0  0.37788042761E-01  0.49688656201E-02  0.80316873800E+01  0.80317840357E+01  0.10000000000E-01 0. -1.
      611    1    3    3    0    0 -0.30628104264E-01 -0.56650339244E-02  0.37560646237E+01  0.37562070804E+01  0.10000000000E-01 0.  1.
</event>
<event>
 7   0  0.6206631E-02  0.9118800E+02  0.7818608E-02  0.1180000E+00
       11   -1    0    0    0    0  0.00000000000E+00  0.00000000000E+00  0.11999999989E+02  0.12000000000E+02  0.51109989000E-03 0.  1.
     -623   -1    0    0    0    0  0.00000000000E+00  0.00000000000E+00  0.42561509872E-11  0.25126700000E+02  0.25126700000E+02 0.  1.
      622    2    1    2    0    0  0.16338199944E-02 -0.33595332208E-02  0.11990313910E+02  0.11990673352E+02  0.92767626521E-01 0.  0.
       11    1    1    2    0    0  0.57084289388E-03  0.35874639063E-02  0.85747942550E-02  0.93265255347E-02  0.51109989000E-03 0.  1.
     -623    1    1    2    0    0 -0.22046628882E-02 -0.22793068546E-03  0.11112853266E-02  0.25126700122E+02  0.25126700000E+02 0.  1.
     -611    1    3    3    0    0 -0.40938166929E-01 -0.32112917535E-02  0.36478877772E+01  0.36481326019E+01  0.10000000000E-01 0. -1.
      611    1    3    3    0    0  0.42571986924E-01 -0.14824146730E-03  0.83424261324E+01  0.83425407503E+01  0.10000000000E-01 0.  1.
</event>
<event>
 7   0  0.6206631E-02  0.9118800E+02  0.7818608E-02  0.1180000E+00
       11   -1    0    0    0    0  0.00000000000E+00  0.00000000000E+00  0.11999999989E+02  0.12000000000E+02  0.51109989000E-03 0. -1.
     -623   -1    0    0    0    0  0.00000000000E+00  0.00000000000E+00  0.42561509872E-11  0.25126700000E+02  0.25126700000E+02 0.  1.
      622    2    1    2    0    0  0.14666294094E-02 -0.76974595717E-03  0.11992203802E+02  0.11992951301E+02  0.13388852274E+00 0.  0.
       11    1    1    2    0    0  0.35065349029E-03  0.69843484223E-04  0.70209586460E-02  0.70486111710E-02  0.51109989000E-03 0. -1.
     -623    1    1    2    0    0 -0.18172828997E-02  0.69990247294E-03  0.77522809325E-03  0.25126700087E+02  0.25126700000E+02 0.  1.
     -611    1    3    3    0    0  0.64750338325E-01 -0.11068027777E-01  0.48972523321E+01  0.48977030854E+01  0.10000000000E-01 0. -1.
      611    1    3    3    0    0 -0.63283708915E-01  0.10298281820E-01  0.70949514703E+01  0.70952482161E+01  0.10000000000E-01 0.  1.
</event>
<event>
 7   0  0.6206631E-02  0.9118800E+02  0.7818608E-02  0.1180000E+00
       11   -1    0    0    0    0  0.00000000000E+00  0.00000000000E+00  0.11999999989E+02  0.12000000000E+02  0.51109989000E-03 0.  1.
     -623   -1    0    0    0    0  0.00000000000E+00  0.00000000000E+00  0.42561509872E-11  0.25126700000E+02  0.25126700000E+02 0.  1.
      622    2    1    2    0    0 -0.75424566020E-02 -0.33681418118E-01  0.80412105824E+01  0.80415314958E+01  0.63006664357E-01 0.  0.
       11    1    1    2    0    0  0.29726185154E-02  0.34609560225E-01  0.39583156163E+01  0.39584680671E+01  0.51109989000E-03 0.  1.
     -623    1    1    2    0    0  0.45698380867E-02 -0.92814210613E-03  0.47379033849E-03  0.25126700437E+02  0.25126700000E+02 0.  1.
     -611    1    3    3    0    0 -0.22625185198E-01 -0.35398814189E-01  0.71761581952E+01  0.71762881364E+01  0.10000000000E-01 0.  1.
      611    1    3    3    0    0  0.15082728596E-01  0.17173960710E-02  0.86505238725E+00  0.86524335932E+00  0.10000000000E-01 0. -1.
</event>
<event>
 7   0  0.6206631E-02  0.9118800E+02  0.7818608E-02  0.1180000E+00
       11   -1    0    0    0    0  0.00000000000E+00  0.00000000000E+00  0.11999999989E+02  0.12000000000E+02  0.51109989000E-03 0.  1.
     -623   -1    0    0    0    0  0.00000000000E+00  0.00000000000E+00  0.42561509872E-11  0.25126700000E+02  0.25126700000E+02 0. -1.
      622    2    1    2    0    0 -0.17657956993E-02 -0.13004044636E-02  0.11969770771E+02  0.11970133340E+02  0.93140030622E-01 0.  0.
       11    1    1    2    0    0  0.52083864617E-03  0.43798459305E-03  0.29854483071E-01  0.29866611559E-01  0.51109989000E-03 0.  1.
     -623    1    1    2    0    0  0.12449570532E-02  0.86241987055E-03  0.37473534917E-03  0.25126700048E+02  0.25126700000E+02 0. -1.
     -611    1    3    3    0    0 -0.39198252636E-01 -0.20459240604E-01  0.79725173385E+01  0.79726462230E+01  0.10000000000E-01 0.  1.
      611    1    3    3    0    0  0.37432456937E-01  0.19158836140E-01  0.39972534321E+01  0.39974871170E+01  0.10000000000E-01 0. -1.
</event>
<event>
 7   0  0.6206631E-02  0.9118800E+02  0.7818608E-02  0.1180000E+00
       11   -1    0    0    0    0  0.00000000000E+00  0.00000000000E+00  0.11999999989E+02  0.12000000000E+02  0.51109989000E-03 0.  1.
     -623   -1    0    0    0    0  0.00000000000E+00  0.00000000000E+00  0.42561509872E-11  0.25126700000E+02  0.25126700000E+02 0.  1.
      622    2    1    2    0    0 -0.37090214129E-02 -0.25535301812E-02  0.11869971078E+02  0.11870542298E+02  0.11636492985E+00 0.  0.
       11    1    1    2    0    0 -0.51143743340E-02 -0.21763897470E-02  0.12933531196E+00  0.12945569759E+00  0.51109989000E-03 0.  1.
     -623    1    1    2    0    0  0.88233957469E-02  0.47299199282E-02  0.69359947730E-03  0.25126702004E+02  0.25126700000E+02 0.  1.
     -611    1    3    3    0    0  0.27396741307E-01  0.38299943293E-01  0.87521368945E+01  0.87522692878E+01  0.10000000000E-01 0.  1.
      611    1    3    3    0    0 -0.31105762720E-01 -0.40853473475E-01  0.31178341832E+01  0.31182730106E+01  0.10000000000E-01 0. -1.
</event>
<event>
 7   0  0.6206631E-02  0.9118800E+02  0.7818608E-02  0.1180000E+00
       11   -1    0    0    0    0  0.00000000000E+00  0.00000000000E+00  0.11999999989E+02  0.12000000000E+02  0.51109989000E-03 0.  1.
     -623   -1    0    0    0    0  0.00000000000E+00  0.00000000000E+00  0.42561509872E-11  0.25126700000E+02  0.25126700000E+02 0.  1.
      622    2    1    2    0    0 -0.77859841361E-02  0.55383707287E-02  0.11964936714E+02  0.11965403654E+02  0.10527464875E+00 0.  0.
       11    1    1    2    0    0  0.59495724505E-02 -0.43440094214E-02  0.33798953938E-01  0.34596218589E-01  0.51109989000E-03 0.  1.
     -623    1    1    2    0    0  0.18364116856E-02 -0.11943613072E-02  0.12643216436E-02  0.25126700127E+02  0.25126700000E+02 0.  1.
     -611    1    3    3    0    0 -0.96556361084E-02  0.22395955692E-01  0.77243527786E+00  0.77288489998E+00  0.10000000000E-01 0. -1.
      611    1    3    3    0    0  0.18696519723E-02 -0.16857584963E-01  0.11192501436E+02  0.11192518754E+02  0.10000000000E-01 0.  1.
</event>
<event>
 7   0  0.6206631E-02  0.9118800E+02  0.7818608E-02  0.1180000E+00
       11   -1    0    0    0    0  0.00000000000E+00  0.00000000000E+00  0.11999999989E+02  0.12000000000E+02  0.51109989000E-03 0.  1.
     -623   -1    0    0    0    0  0.00000000000E+00  0.00000000000E+00  0.42561509872E-11  0.25126700000E+02  0.25126700000E+02 0. -1.
      622    2    1    2    0    0  0.86896530849E-02 -0.10141007765E-01  0.11170321951E+02  0.11170797196E+02  0.10217221168E+00 0.  0.
       11    1    1    2    0    0 -0.24322748780E-01 -0.21706892053E-01  0.82853645865E+00  0.82917773113E+00  0.51109989000E-03 0.  1.
     -623    1    1    2    0    0  0.15633095695E-01  0.31847899817E-01  0.11415794927E-02  0.25126725073E+02  0.25126700000E+02 0. -1.
     -611    1    3    3    0    0  0.45622442615E-01 -0.29519223430E-01  0.45338704063E+01  0.45342070589E+01  0.10000000000E-01 0. -1.
      611    1    3    3    0    0 -0.36932789530E-01  0.19378215665E-01  0.66364515447E+01  0.66365901374E+01  0.10000000000E-01 0.  1.
</event>
<event>
 7   0  0.6206631E-02  0.9118800E+02  0.7818608E-02  0.1180000E+00
       11   -1    0    0    0    0  0.00000000000E+00  0.00000000000E+00  0.11999999989E+02  0.12000000000E+02  0.51109989000E-03 0.  1.
     -623   -1    0    0    0    0  0.00000000000E+00  0.00000000000E+00  0.42561509872E-11  0.25126700000E+02  0.25126700000E+02 0. -1.
      622    2    1    2    0    0  0.32951298342E-02  0.40777879440E-02  0.11992647311E+02  0.11994232510E+02  0.19492684436E+00 0.  0.
       11    1    1    2    0    0 -0.24029810606E-02  0.80471420271E-03  0.51550049235E-02  0.57669040063E-02  0.51109989000E-03 0.  1.
     -623    1    1    2    0    0 -0.89214877361E-03 -0.48825021467E-02  0.21976728122E-02  0.25126700586E+02  0.25126700000E+02 0. -1.
     -611    1    3    3    0    0 -0.16656108889E-01 -0.34130885998E-01  0.51339318051E+00  0.51489309680E+00  0.10000000000E-01 0. -1.
      611    1    3    3    0    0  0.19951238723E-01  0.38208673942E-01  0.11479254131E+02  0.11479339413E+02  0.10000000000E-01 0.  1.
</event>
<event>
 7   0  0.6206631E-02  0.9118800E+02  0.7818608E-02  0.1180000E+00
       11   -1    0    0    0    0  0.00000000000E+00  0.00000000000E+00  0.11999999989E+02  0.12000000000E+02  0.51109989000E-03 0. -1.
     -623   -1    0    0    0    0  0.00000000000E+00  0.00000000000E+00  0.42561509872E-11  0.25126700000E+02  0.25126700000E+02 0.  1.
      622    2    1    2    0    0  0.91550016348E-02 -0.17515942501E-02  0.96145993963E+01  0.96147994206E+01  0.61314482636E-01 0.  0.
       11    1    1    2    0    0  0.82327984815E-03 -0.29709407534E-02  0.23851961062E+01  0.23851981534E+01  0.51109989000E-03 0. -1.
     -623    1    1    2    0    0 -0.99782814831E-02  0.47225350035E-02  0.20448648198E-03  0.25126702426E+02  0.25126700000E+02 0.  1.
     -611    1    3    3    0    0  0.58591266184E-03 -0.57144485473E-02  0.35023825257E+00  0.35042806933E+00  0.10000000000E-01 0. -1.
      611    1    3    3    0    0  0.85690889730E-02  0.39628542972E-02  0.92643611437E+01  0.92643713513E+01  0.10000000000E-01 0. -1.
</event>
<event>
 7   0  0.6206631E-02  0.9118800E+02  0.7818608E-02  0.1180000E+00
       11   -1    0    0    0    0  0.00000000000E+00  0.00000000000E+00  0.11999999989E+02  0.12000000000E+02  0.51109989000E-03 0.  1.
     -623   -1    0    0    0    0  0.00000000000E+00  0.00000000000E+00  0.42561509872E-11  0.25126700000E+02  0.25126700000E+02 0. -1.
      622    2    1    2    0    0  0.29997050194E-02  0.23353352200E-01  0.97782163106E+01  0.97785519622E+01  0.77523443241E-01 0.  0.
       11    1    1    2    0    0 -0.33834046259E-02 -0.22865988705E-01  0.22213277043E+01  0.22214480259E+01  0.51109989000E-03 0.  1.
     -623    1    1    2    0    0  0.38369960646E-03 -0.48736349509E-03  0.45597420968E-03  0.25126700012E+02  0.25126700000E+02 0. -1.
     -611    1    3    3    0    0  0.14336473739E-02 -0.23724720166E-01  0.55784749649E+01  0.55785345613E+01  0.10000000000E-01 0.  1.
      611    1    3    3    0    0  0.15660576456E-02  0.47078072366E-01  0.41997413457E+01  0.42000174009E+01  0.10000000000E-01 0. -1.
</event>
<event>
 7   0  0.6206631E-02  0.9118800E+02  0.7818608E-02  0.1180000E+00
       11   -1    0    0    0    0  0.00000000000E+00  0.00000000000E+00  0.11999999989E+02  0.12000000000E+02  0.51109989000E-03 0.  1.
     -623   -1    0    0    0    0  0.00000000000E+00  0.00000000000E+00  0.42561509872E-11  0.25126700000E+02  0.25126700000E+02 0.  1.
      622    2    1    2    0    0  0.42626482022E-02  0.31517146547E-02  0.11970825286E+02  0.11971874523E+02  0.15840910799E+00 0.  0.
       11    1    1    2    0    0  0.47899982738E-02 -0.69065990595E-03  0.27699444351E-01  0.28123682815E-01  0.51109989000E-03 0.  1.
     -623    1    1    2    0    0 -0.90526464760E-02 -0.24610547488E-02  0.14752584272E-02  0.25126701795E+02  0.25126700000E+02 0.  1.
     -611    1    3    3    0    0 -0.92591940124E-02  0.70780661208E-01  0.87425420798E+01  0.87428392214E+01  0.10000000000E-01 0.  1.
      611    1    3    3    0    0  0.13521842215E-01 -0.67628946553E-01  0.32282832065E+01  0.32290353012E+01  0.10000000000E-01 0. -1.
</event>
<event>
 7   0  0.6206631E-02  0.9118800E+02  0.7818608E-02  0.1180000E+00
       11   -1    0    0    0    0  0.00000000000E+00  0.00000000000E+00  0.11999999989E+02  0.12000000000E+02  0.51109989000E-03 0. -1.
     -623   -1    0    0    0    0  0.00000000000E+00  0.00000000000E+00  0.42561509872E-11  0.25126700000E+02  0.25126700000E+02 0. -1.
      622    2    1    2    0    0  0.44077297471E-02  0.42395818730E-03  0.11995486323E+02  0.11995922988E+02  0.10225750415E+00 0.  0.
       11    1    1    2    0    0 -0.48913118260E-03 -0.22951852986E-02  0.32939908413E-02  0.40766068796E-02  0.51109989000E-03 0. -1.
     -623    1    1    2    0    0 -0.39185985645E-02  0.18712271113E-02  0.12196748397E-02  0.25126700405E+02  0.25126700000E+02 0. -1.
     -611    1    3    3    0    0  0.33269781473E-02  0.47816754211E-01  0.41855546068E+01  0.41858410000E+01  0.10000000000E-01 0.  1.
      611    1    3    3    0    0  0.10807515998E-02 -0.47392796023E-01  0.78099317166E+01  0.78100819883E+01  0.10000000000E-01 0. -1.
</event>
<event>
 7   0  0.6206631E-02  0.9118800E+02  0.7818608E-02  0.1180000E+00
       11   -1    0    0    0    0  0.00000000000E+00  0.00000000000E+00  0.11999999989E+02  0.12000000000E+02  0.51109989000E-03 0.  1.
     -623   -1    0    0    0    0  0.00000000000E+00  0.00000000000E+00  0.42561509872E-11  0.25126700000E+02  0.25126700000E+02 0.  1.
      622    2    1    2    0    0 -0.42040127261E-02  0.63245608917E-04  0.11963816996E+02  0.11964186180E+02  0.93894395547E-01 0.  0.
       11    1    1    2    0    0 -0.86610755593E-03  0.28113280343E-02  0.35688457422E-01  0.35813138984E-01  0.51109989000E-03 0.  1.
     -623    1    1    2    0    0  0.50701202820E-02 -0.28745736432E-02  0.49453548069E-03  0.25126700681E+02  0.25126700000E+02 0.  1.
     -611    1    3    3    0    0 -0.34398117519E-01  0.16377738489E-02  0.20205298382E+01  0.20208480249E+01  0.10000000000E-01 0. -1.
      611    1    3    3    0    0  0.30194104793E-01 -0.15745282400E-02  0.99432871580E+01  0.99433381553E+01  0.10000000000E-01 0.  1.
</event>
<event>
 7   0  0.6206631E-02  0.9118800E+02  0.7818608E-02  0.1180000E+00
       11   -1    0    0    0    0  0.00000000000E+00  0.00000000000E+00  0.11999999989E+02  0.12000000000E+02  0.51109989000E-03 0. -1.
     -623   -1    0    0    0    0  0.00000000000E+00  0.00000000000E+00  0.42561509872E-11  0.25126700000E+02  0.25126700000E+02 0. -1.
      622    2    1    2    0    0  0.12375737717E-02 -0.25615916868E-02  0.11990392252E+02  0.11990879739E+02  0.10808543175E+00 0.  0.
       11    1    1    2    0    0 -0.18555458473E-02  0.17136232080E-02  0.87485836799E-02  0.91202244737E-02  0.51109989000E-03 0. -1.
     -623    1    1    2    0    0  0.61797207566E-03  0.84796847871E-03  0.85915332475E-03  0.25126700037E+02  0.25126700000E+02 0. -1.
     -611    1    3    3    0    0  0.36863276025E-01  0.28365137379E-01  0.31838152304E+01  0.31841706775E+01  0.10000000000E-01 0.  1.
      611    1    3    3    0    0 -0.35625702253E-01 -0.30926729066E-01  0.88065770217E+01  0.88067090615E+01  0.10000000000E-01 0. -1.
</event>
<event>
 7   0  0.6206631E-02  0.9118800E+02  0.7818608E-02  0.1180000E+00
       11   -1    0    0    0    0  0.00000000000E+00  0.00000000000E+00  0.11999999989E+02  0.12000000000E+02  0.51109989000E-03 0. -1.
     -623   -1    0    0    0    0  0.00000000000E+00  0.00000000000E+00  0.42561509872E-11  0.25126700000E+02  0.25126700000E+02 0.  1.
      622    2    1    2    0    0 -0.12929367814E-01 -0.19071225718E-01  0.10457890444E+02  0.10458351806E+02  0.95493849644E-01 0.  0.
       11    1    1    2    0    0  0.14825894637E-01  0.17242620178E-01  0.15414802395E+01  0.15416480483E+01  0.51109989000E-03 0. -1.
     -623    1    1    2    0    0 -0.18965268232E-02  0.18286055402E-02  0.62930581619E-03  0.25126700146E+02  0.25126700000E+02 0.  1.
     -611    1    3    3    0    0  0.21082585610E-01  0.19163836245E-01  0.14697939308E+01  0.14701040531E+01  0.10000000000E-01 0.  1.
      611    1    3    3    0    0 -0.34011953424E-01 -0.38235061963E-01  0.89880965131E+01  0.89882477526E+01  0.10000000000E-01 0. -1.
</event>
<event>
 7   0  0.6206631E-02  0.9118800E+02  0.7818608E-02  0.1180000E+00
       11   -1    0    0    0    0  0.00000000000E+00  0.00000000000E+00  0.11999999989E+02  0.12000000000E+02  0.51109989000E-03 0.  1.
     -623   -1    0    0    0    0  0.00000000000E+00  0.00000000000E+00  0.42561509872E-11  0.25126700000E+02  0.25126700000E+02 0. -1.
      622    2    1    2    0    0  0.19879034050E-02 -0.53512309407E-02  0.11298584212E+02  0.11298988851E+02  0.95452952613E-01 0.  0.
       11    1    1    2    0    0 -0.32698851335E-02  0.41750897825E-02  0.70099083948E+00  0.70101108535E+00  0.51109989000E-03 0.  1.
     -623    1    1    2    0    0  0.12819817286E-02  0.11761411582E-02  0.42493755672E-03  0.25126700064E+02  0.25126700000E+02 0. -1.
     -611    1    3    3    0    0  0.89501318001E-02 -0.37012947737E-01  0.95182868963E+01  0.95183683215E+01  0.10000000000E-01 0.  1.
      611    1    3    3    0    0 -0.69622283951E-02  0.31661716796E-01  0.17802973158E+01  0.17806205294E+01  0.10000000000E-01 0. -1.
</event>
<event>
 7   0  0.6206631E-02  0.9118800E+02  0.7818608E-02  0.1180000E+00
       11   -1    0    0    0    0  0.00000000000E+00  0.00000000000E+00  0.11999999989E+02  0.12000000000E+02  0.51109989000E-03 0. -1.
     -623   -1    0    0    0    0  0.00000000000E+00  0.00000000000E+00  0.42561509872E-11  0.25126700000E+02  0.25126700000E+02 0.  1.
      622    2    1    2    0    0  0.50036895274E-01 -0.74392104380E-02  0.65147559606E+01  0.65158720472E+01  0.10947271905E+00 0.  0.
       11    1    1    2    0    0 -0.47391148486E-01  0.13278108316E-01  0.54839062312E+01  0.54841270995E+01  0.51109989000E-03 0. -1.
     -623    1    1    2    0    0 -0.26457467873E-02 -0.58388978780E-02  0.13377972674E-02  0.25126700853E+02  0.25126700000E+02 0.  1.
     -611    1    3    3    0    0  0.80669090049E-01 -0.22059557963E-01  0.41860809890E+01  0.41869282502E+01  0.10000000000E-01 0. -1.
      611    1    3    3    0    0 -0.30632194775E-01  0.14620347525E-01  0.23286749716E+01  0.23289437970E+01  0.10000000000E-01 0. -1.
</event>
<event>
 7   0  0.6206631E-02  0.9118800E+02  0.7818608E-02  0.1180000E+00
       11   -1    0    0    0    0  0.00000000000E+00  0.00000000000E+00  0.11999999989E+02  0.12000000000E+02  0.51109989000E-03 0. -1.
     -623   -1    0    0    0    0  0.00000000000E+00  0.00000000000E+00  0.42561509872E-11  0.25126700000E+02  0.25126700000E+02 0. -1.
      622    2    1    2    0    0  0.57090982123E-02 -0.49992965096E-01  0.52440767892E+01  0.52451653365E+01  0.94266356374E-01 0.  0.
       11    1    1    2    0    0 -0.84177074574E-02  0.50175442740E-01  0.67546428636E+01  0.67548344842E+01  0.51109989000E-03 0. -1.
     -623    1    1    2    0    0  0.27086092451E-02 -0.18247764350E-03  0.12803362986E-02  0.25126700179E+02  0.25126700000E+02 0. -1.
     -611    1    3    3    0    0  0.27181995989E-01 -0.60792722583E-01  0.23316562600E+01  0.23326284596E+01  0.10000000000E-01 0.  1.
      611    1    3    3    0    0 -0.21472897777E-01  0.10799757486E-01  0.29124205292E+01  0.29125368769E+01  0.10000000000E-01 0. -1.
</event>
<event>
 7   0  0.6206631E-02  0.9118800E+02  0.7818608E-02  0.1180000E+00
       11   -1    0    0    0    0  0.00000000000E+00  0.00000000000E+00  0.11999999989E+02  0.12000000000E+02  0.51109989000E-03 0.  1.
     -623   -1    0    0    0    0  0.00000000000E+00  0.00000000000E+00  0.42561509872E-11  0.25126700000E+02  0.25126700000E+02 0. -1.
      622    2    1    2    0    0 -0.36095146392E-01  0.50467983533E-01  0.11716190123E+02  0.11716852756E+02  0.10806302301E+00 0.  0.
       11    1    1    2    0    0  0.32804238471E-01 -0.45941123741E-01  0.27746096792E+00  0.28314581907E+00  0.51109989000E-03 0.  1.
     -623    1    1    2    0    0  0.32909079202E-02 -0.45268597920E-02  0.63488980820E-02  0.25126701425E+02  0.25126700000E+02 0. -1.
     -611    1    3    3    0    0  0.48664811420E-02  0.21113058966E-01  0.52241241730E+00  0.52295714704E+00  0.10000000000E-01 0.  1.
      611    1    3    3    0    0 -0.40961627534E-01  0.29354924566E-01  0.11193777706E+02  0.11193895609E+02  0.10000000000E-01 0.  1.
</event>
<event>
 7   0  0.6206631E-02  0.9118800E+02  0.7818608E-02  0.1180000E+00
       11   -1    0    0    0    0  0.00000000000E+00  0.00000000000E+00  0.11999999989E+02  0.12000000000E+02  0.51109989000E-03 0. -1.
     -623   -1    0    0    0    0  0.00000000000E+00  0.00000000000E+00  0.42561509872E-11  0.25126700000E+02  0.25126700000E+02 0. -1.
      622    2    1    2    0    0 -0.64057781358E-02  0.92652946538E-02  0.11952590182E+02  0.11953200772E+02  0.12029029094E+00 0.  0.
       11    1    1    2    0    0 -0.19138421035E-03  0.42948935778E-03  0.46791330850E-01  0.46796484429E-01  0.51109989000E-03 0. -1.
     -623    1    1    2    0    0  0.65971623461E-02 -0.96947840116E-02  0.61847653940E-03  0.25126702744E+02  0.25126700000E+02 0. -1.
     -611    1    3    3    0    0  0.47019750506E-02 -0.24621628490E-01  0.66203359703E+00  0.66258344135E+00  0.10000000000E-01 0. -1.
      611    1    3    3    0    0 -0.11107753186E-01  0.33886923144E-01  0.11290556585E+02  0.11290617330E+02  0.10000000000E-01 0. -1.
</event>
<event>
 7   0  0.6206631E-02  0.9118800E+02  0.7818608E-02  0.1180000E+00
       11   -1    0    0    0    0  0.00000000000E+00  0.00000000000E+00  0.11999999989E+02  0.12000000000E+02  0.51109989000E-03 0. -1.
     -623   -1    0    0    0    0  0.00000000000E+00  0.00000000000E+00  0.42561509872E-11  0.25126700000E+02  0.25126700000E+02 0.  1.
      622    2    1    2    0    0  0.24241955230E-03 -0.21298131381E-02  0.11997379628E+02  0.11997761749E+02  0.95731107356E-01 0.  0.
       11    1    1    2    0    0 -0.60778562091E-03  0.14856012055E-02  0.14737583361E-02  0.22382138111E-02  0.51109989000E-03 0. -1.
     -623    1    1    2    0    0  0.36536606861E-03  0.64421193264E-03  0.11466023530E-02  0.25126700037E+02  0.25126700000E+02 0.  1.
     -611    1    3    3    0    0 -0.59891242261E-02 -0.37711148304E-01  0.96681013209E+01  0.96681818949E+01  0.10000000000E-01 0. -1.
      611    1    3    3    0    0  0.62315437784E-02  0.35581335166E-01  0.23292783075E+01  0.23295798542E+01  0.10000000000E-01 0.  1.
</event>
<event>
 7   0  0.6206631E-02  0.9118800E+02  0.7818608E-02  0.1180000E+00
       11   -1    0    0    0    0  0.00000000000E+00  0.00000000000E+00  0.11999999989E+02  0.12000000000E+02  0.51109989000E-03 0.  1.
     -623   -1    0    0    0    0  0.00000000000E+00  0.00000000000E+00  0.42561509872E-11  0.25126700000E+02  0.25126700000E+02 0. -1.
      622    2    1    2    0    0  0.34503860119E-01  0.56970078293E-01  0.11936365189E+02  0.11937405360E+02  0.14281699139E+00 0.  0.
       11    1    1    2    0    0 -0.40238992083E-01 -0.16789412411E-01  0.44852935061E-01  0.62554838819E-01  0.51109989000E-03 0.  1.
     -623    1    1    2    0    0  0.57351319645E-02 -0.40180665882E-01  0.18781864665E-01  0.25126739801E+02  0.25126700000E+02 0. -1.
     -611    1    3    3    0    0  0.56517588118E-01  0.12791758914E-01  0.10488008146E+02  0.10488172993E+02  0.10000000000E-01 0.  1.
      611    1    3    3    0    0 -0.22013728000E-01  0.44178319379E-01  0.14483570434E+01  0.14492323669E+01  0.10000000000E-01 0. -1.
</event>
<event>
 7   0  0.6206631E-02  0.9118800E+02  0.7818608E-02  0.1180000E+00
       11   -1    0    0    0    0  0.00000000000E+00  0.00000000000E+00  0.11999999989E+02  0.12000000000E+02  0.51109989000E-03 0.  1.
     -623   -1    0    0    0    0  0.00000000000E+00  0.00000000000E+00  0.42561509872E-11  0.25126700000E+02  0.25126700000E+02 0. -1.
      622    2    1    2    0    0 -0.53975703899E-02 -0.19046973575E-02  0.11275834391E+02  0.11276217983E+02  0.92833405010E-01 0.  0.
       11    1    1    2    0    0  0.63984122267E-02 -0.31267940504E-02  0.72374627227E+00  0.72378148937E+00  0.51109989000E-03 0.  1.
     -623    1    1    2    0    0 -0.10008418367E-02  0.50314914080E-02  0.41932612858E-03  0.25126700527E+02  0.25126700000E+02 0. -1.
     -611    1    3    3    0    0 -0.31675872356E-01  0.96211726082E-02  0.98459770517E+01  0.98460377834E+01  0.10000000000E-01 0.  1.
      611    1    3    3    0    0  0.26278301966E-01 -0.11525869966E-01  0.14298573390E+01  0.14301802000E+01  0.10000000000E-01 0. -1.
</event>
<event>
 7   0  0.6206631E-02  0.9118800E+02  0.7818608E-02  0.1180000E+00
       11   -1    0    0    0    0  0.00000000000E+00  0.00000000000E+00  0.11999999989E+02  0.12000000000E+02  0.51109989000E-03 0.  1.
     -623   -1    0    0    0    0  0.00000000000E+00  0.00000000000E+00  0.42561509872E-11  0.25126700000E+02  0.25126700000E+02 0. -1.
      622    2    1    2    0    0  0.23104565377E-02  0.12368570839E-01  0.11841345980E+02  0.11841792257E+02  0.10203391833E+00 0.  0.
       11    1    1    2    0    0  0.60096647231E-02 -0.21654815516E-01  0.15659941360E+00  0.15820456589E+00  0.51109989000E-03 0.  1.
     -623    1    1    2    0    0 -0.83201212608E-02  0.92862446768E-02  0.20545959228E-02  0.25126703177E+02  0.25126700000E+02 0. -1.
     -611    1    3    3    0    0  0.28145708634E-01  0.38559989053E-01  0.95859029366E+01  0.95860270271E+01  0.10000000000E-01 0.  1.
      611    1    3    3    0    0 -0.25835252096E-01 -0.26191418213E-01  0.22554430429E+01  0.22557652295E+01  0.10000000000E-01 0. -1.
</event>
<event>
 7   0  0.6206631E-02  0.9118800E+02  0.7818608E-02  0.1180000E+00
       11   -1    0    0    0    0  0.00000000000E+00  0.00000000000E+00  0.11999999989E+02  0.12000000000E+02  0.51109989000E-03 0. -1.
     -623   -1    0    0    0    0  0.00000000000E+00  0.00000000000E+00  0.42561509872E-11  0.25126700000E+02  0.25126700000E+02 0.  1.
      622    2    1    2    0    0 -0.30386611052E-02 -0.38203715614E-02  0.11949376786E+02  0.11949892445E+02  0.11090559566E+00 0.  0.
       11    1    1    2    0    0 -0.12855956860E-01 -0.27621086200E-01  0.39744122937E-01  0.50080500804E-01  0.51109989000E-03 0. -1.
     -623    1    1    2    0    0  0.15894617965E-01  0.31441457761E-01  0.10879080309E-01  0.25126727054E+02  0.25126700000E+02 0.  1.
     -611    1    3    3    0    0  0.44285544404E-01 -0.28219546973E-01  0.74007739288E+01  0.74009669840E+01  0.10000000000E-01 0. -1.
      611    1    3    3    0    0 -0.47324205509E-01  0.24399175411E-01  0.45486028571E+01  0.45489254612E+01  0.10000000000E-01 0.  1.
</event>
<event>
 7   0  0.6206631E-02  0.9118800E+02  0.7818608E-02  0.1180000E+00
       11   -1    0    0    0    0  0.00000000000E+00  0.00000000000E+00  0.11999999989E+02  0.12000000000E+02  0.51109989000E-03 0. -1.
     -623   -1    0    0    0    0  0.00000000000E+00  0.00000000000E+00  0.42561509872E-11  0.25126700000E+02  0.25126700000E+02 0. -1.
      622    2    1    2    0    0  0.15906393011E-02 -0.26983778172E-02  0.11988515421E+02  0.11988957477E+02  0.10290560356E+00 0.  0.
       11    1    1    2    0    0 -0.50905155002E-02  0.31800564877E-02  0.92543135371E-02  0.11042175941E-01  0.51109989000E-03 0. -1.
     -623    1    1    2    0    0  0.34998761991E-02 -0.48167867050E-03  0.22302544024E-02  0.25126700347E+02  0.25126700000E+02 0. -1.
     -611    1    3    3    0    0  0.39811869236E-01  0.18357291927E-01  0.89428356041E+01  0.89429486534E+01  0.10000000000E-01 0. -1.
      611    1    3    3    0    0 -0.38221229935E-01 -0.21055669745E-01  0.30456798170E+01  0.30460088233E+01  0.10000000000E-01 0.  1.
</event>
<event>
 7   0  0.6206631E-02  0.9118800E+02  0.7818608E-02  0.1180000E+00
       11   -1    0    0    0    0  0.00000000000E+00  0.00000000000E+00  0.11999999989E+02  0.12000000000E+02  0.51109989000E-03 0.  1.
     -623   -1    0    0    0    0  0.00000000000E+00  0.00000000000E+00  0.42561509872E-11  0.25126700000E+02  0.25126700000E+02 0.  1.
      622    2    1    2    0    0  0.86870441088E-01  0.70752731132E-01  0.74962637453E+01  0.74977200240E+01  0.96348313756E-01 0.  0.
       11    1    1    2    0    0 -0.73361855293E-01 -0.64570884827E-01  0.45012145778E+01  0.45022754577E+01  0.51109989000E-03 0.  1.
     -623    1    1    2    0    0 -0.13508585795E-01 -0.61818463055E-02  0.25216660635E-02  0.25126704518E+02  0.25126700000E+02 0.  1.
     -611    1    3    3    0    0  0.16607615846E-01  0.74218046561E-01  0.39211151282E+01  0.39218653700E+01  0.10000000000E-01 0. -1.
      611    1    3    3    0    0  0.70262825241E-01 -0.34653154284E-02  0.35751486171E+01  0.35758546541E+01  0.10000000000E-01 0.  1.
</event>
<event>
 7   0  0.6206631E-02  0.9118800E+02  0.7818608E-02  0.1180000E+00
       11   -1    0    0    0    0  0.00000000000E+00  0.00000000000E+00  0.11999999989E+02  0.12000000000E+02  0.51109989000E-03 0. -1.
     -623   -1    0    0    0    0  0.00000000000E+00  0.00000000000E+00  0.42561509872E-11  0.25126700000E+02  0.25126700000E+02 0. -1.
      622    2    1    2    0    0 -0.18462616259E-02  0.86847917513E-03  0.11986452592E+02  0.11986851138E+02  0.97725704914E-01 0.  0.
       11    1    1    2    0    0 -0.60321896456E-03  0.56550125037E-04  0.13124808393E-01  0.13148721972E-01  0.51109989000E-03 0. -1.
     -623    1    1    2    0    0  0.24494805905E-02 -0.92502930017E-03  0.42258917649E-03  0.25126700140E+02  0.25126700000E+02 0. -1.
     -611    1    3    3    0    0  0.25812214283E-01 -0.34522022031E-01  0.81924301983E+01  0.81925497004E+01  0.10000000000E-01 0. -1.
      611    1    3    3    0    0 -0.27658475909E-01  0.35390501206E-01  0.37940223933E+01  0.37943014376E+01  0.10000000000E-01 0.  1.
</event>
<event>
 7   0  0.6206631E-02  0.9118800E+02  0.7818608E-02  0.1180000E+00
       11   -1    0    0    0    0  0.00000000000E+00  0.00000000000E+00  0.11999999989E+02  0.12000000000E+02  0.51109989000E-03 0. -1.
     -623   -1    0    0    0    0  0.00000000000E+00  0.00000000000E+00  0.42561509872E-11  0.25126700000E+02  0.25126700000E+02 0.  1.
      622    2    1    2    0    0 -0.23130075895E-01  0.35758718752E-01  0.11824210532E+02  0.11824720753E+02  0.10125464112E+00 0.  0.
       11    1    1    2    0    0  0.14553023652E-01 -0.49355154913E-01  0.16754866414E+00  0.17527275286E+00  0.51109989000E-03 0. -1.
     -623    1    1    2    0    0  0.85770522429E-02  0.13596436161E-01  0.82407930219E-02  0.25126706494E+02  0.25126700000E+02 0.  1.
     -611    1    3    3    0    0 -0.50509402824E-01  0.53848435954E-01  0.88093901670E+01  0.88097052146E+01  0.10000000000E-01 0. -1.
      611    1    3    3    0    0  0.27379326929E-01 -0.18089717201E-01  0.30148203650E+01  0.30150155387E+01  0.10000000000E-01 0. -1.
</event>
<event>
 7   0  0.6206631E-02  0.9118800E+02  0.7818608E-02  0.1180000E+00
       11   -1    0    0    0    0  0.00000000000E+00  0.00000000000E+00  0.11999999989E+02  0.12000000000E+02  0.51109989000E-03 0. -1.
     -623   -1    0    0    0    0  0.00000000000E+00  0.00000000000E+00  0.42561509872E-11  0.25126700000E+02  0.25126700000E+02 0. -1.
      622    2    1    2    0    0 -0.10279588887E-01 -0.11688760688E-01  0.11980886126E+02  0.11981071332E+02  0.64773491699E-01 0.  0.
       11    1    1    2    0    0  0.57295577920E-02  0.76293391226E-02  0.16339056920E-01  0.18927774621E-01  0.51109989000E-03 0. -1.
     -623    1    1    2    0    0  0.45500310950E-02  0.40594215655E-02  0.27748060867E-02  0.25126700893E+02  0.25126700000E+02 0. -1.
     -611    1    3    3    0    0 -0.22477512811E-01 -0.10040264355E-01  0.11162145948E+02  0.11162177575E+02  0.10000000000E-01 0. -1.
      611    1    3    3    0    0  0.12197923924E-01 -0.16484963333E-02  0.81874017831E+00  0.81889375775E+00  0.10000000000E-01 0.  1.
</event>
<event>
 7   0  0.6206631E-02  0.9118800E+02  0.7818608E-02  0.1180000E+00
       11   -1    0    0    0    0  0.00000000000E+00  0.00000000000E+00  0.11999999989E+02  0.12000000000E+02  0.51109989000E-03 0. -1.
     -623   -1    0    0    0    0  0.00000000000E+00  0.00000000000E+00  0.42561509872E-11  0.25126700000E+02  0.25126700000E+02 0. -1.
      622    2    1    2    0    0  0.32517949604E-01 -0.12691283466E-01  0.11449095772E+02  0.11449701588E+02  0.11248983147E+00 0.  0.
       11    1    1    2    0    0 -0.31980991763E-01  0.67541353669E-02  0.54932581036E+00  0.55029765521E+00  0.51109989000E-03 0. -1.
     -623    1    1    2    0    0 -0.53695784168E-03  0.59371480988E-02  0.15784062900E-02  0.25126700757E+02  0.25126700000E+02 0. -1.
     -611    1    3    3    0    0  0.40904144072E-01  0.22565473889E-01  0.21537470879E+01  0.21542768783E+01  0.10000000000E-01 0.  1.
      611    1    3    3    0    0 -0.83861944678E-02 -0.35256757355E-01  0.92953486846E+01  0.92954247098E+01  0.10000000000E-01 0. -1.
</event>
<event>
 7   0  0.6206631E-02  0.9118800E+02  0.7818608E-02  0.1180000E+00
       11   -1    0    0    0    0  0.00000000000E+00  0.00000000000E+00  0.11999999989E+02  0.12000000000E+02  0.51109989000E-03 0.  1.
     -623   -1    0    0    0    0  0.00000000000E+00  0.00000000000E+00  0.42561509872E-11  0.25126700000E+02  0.25126700000E+02 0. -1.
      622    2    1    2    0    0 -0.63403940593E-02  0.41503217614E-02  0.11907245879E+02  0.11907616346E+02  0.93622699957E-01 0.  0.
       11    1    1    2    0    0  0.10633515014E-02 -0.69113578881E-02  0.92116495667E-01  0.92382939883E-01  0.51109989000E-03 0.  1.
     -623    1    1    2    0    0  0.52770425579E-02  0.27610361267E-02  0.63761489494E-03  0.25126700714E+02  0.25126700000E+02 0. -1.
     -611    1    3    3    0    0 -0.10963629009E-01  0.30359871851E-01  0.17259853735E+01  0.17263161450E+01  0.10000000000E-01 0. -1.
      611    1    3    3    0    0  0.46232349495E-02 -0.26209550089E-01  0.10181260505E+02  0.10181300201E+02  0.10000000000E-01 0.  1.
</event>
<event>
 7   0  0.6206631E-02  0.9118800E+02  0.7818608E-02  0.1180000E+00
       11   -1    0    0    0    0  0.00000000000E+00  0.00000000000E+00  0.11999999989E+02  0.12000000000E+02  0.51109989000E-03 0. -1.
     -623   -1    0    0    0    0  0.00000000000E+00  0.00000000000E+00  0.42561509872E-11  0.25126700000E+02  0.25126700000E+02 0.  1.
      622    2    1    2    0    0  0.10807321850E-01 -0.21859322712E-02  0.11990721200E+02  0.11991210207E+02  0.10772997485E+00 0.  0.
       11    1    1    2    0    0 -0.79128697831E-02  0.35255232883E-02  0.13896380024E-02  0.87883524954E-02  0.51109989000E-03 0. -1.
     -623    1    1    2    0    0 -0.28944520669E-02 -0.13395910171E-02  0.78891511837E-02  0.25126701441E+02  0.25126700000E+02 0.  1.
     -611    1    3    3    0    0 -0.72435512754E-02 -0.15921049332E-01  0.43871772842E+00  0.43918013853E+00  0.10000000000E-01 0.  1.
      611    1    3    3    0    0  0.18050873125E-01  0.13735117061E-01  0.11552003472E+02  0.11552030068E+02  0.10000000000E-01 0. -1.
</event>
<event>
 7   0  0.6206631E-02  0.9118800E+02  0.7818608E-02  0.1180000E+00
       11   -1    0    0    0    0  0.00000000000E+00  0.00000000000E+00  0.11999999989E+02  0.12000000000E+02  0.51109989000E-03 0.  1.
     -623   -1    0    0    0    0  0.00000000000E+00  0.00000000000E+00  0.42561509872E-11  0.25126700000E+02  0.25126700000E+02 0. -1.
      622    2    1    2    0    0  0.40284493370E-02 -0.62475473321E-02  0.11846603832E+02  0.11846874837E+02  0.79785841496E-01 0.  0.
       11    1    1    2    0    0 -0.47946861204E-02 -0.14597759777E-02  0.15304106661E+00  0.15312396694E+00  0.51109989000E-03 0.  1.
     -623    1    1    2    0    0  0.76623678338E-03  0.77073233098E-02  0.35509027355E-03  0.25126701196E+02  0.25126700000E+02 0. -1.
     -611    1    3    3    0    0 -0.13540933604E-01 -0.38349122436E-01  0.67367502708E+01  0.67368804519E+01  0.10000000000E-01 0.  1.
      611    1    3    3    0    0  0.17569382941E-01  0.32101575104E-01  0.51098535614E+01  0.51099943849E+01  0.10000000000E-01 0. -1.
</event>
<event>
 7   0  0.6206631E-02  0.9118800E+02  0.7818608E-02  0.1180000E+00
       11   -1    0    0    0    0  0.00000000000E+00  0.00000000000E+00  0.11999999989E+02  0.12000000000E+02  0.51109989000E-03 0. -1.
     -623   -1    0    0    0    0  0.00000000000E+00  0.00000000000E+00  0.42561509872E-11  0.25126700000E+02  0.25126700000E+02 0.  1.
      622    2    1    2    0    0  0.71947055409E-03  0.12405326504E-01  0.11384962430E+02  0.11385247035E+02  0.79536849340E-01 0.  0.
       11    1    1    2    0    0  0.20190611190E-03 -0.12670469952E-01  0.61462211011E+00  0.61475294309E+00  0.51109989000E-03 0. -1.
     -623    1    1    2    0    0 -0.92137666600E-03  0.26514344809E-03  0.41544902995E-03  0.25126700022E+02  0.25126700000E+02 0.  1.
     -611    1    3    3    0    0 -0.11632206676E-01 -0.28910717702E-01  0.32674750301E+01  0.32676389351E+01  0.10000000000E-01 0.  1.
      611    1    3    3    0    0  0.12351677230E-01  0.41316044207E-01  0.81174873998E+01  0.81176081001E+01  0.10000000000E-01 0. -1.
</event>
<event>
 7   0  0.6206631E-02  0.9118800E+02  0.7818608E-02  0.1180000E+00
       11   -1    0    0    0    0  0.00000000000E+00  0.00000000000E+00  0.11999999989E+02  0.12000000000E+02  0.51109989000E-03 0. -1.
     -623   -1    0    0    0    0  0.00000000000E+00  0.00000000000E+00  0.42561509872E-11  0.25126700000E+02  0.25126700000E+02 0.  1.
      622    2    1    2    0    0 -0.29388130319E-02  0.19894361260E-02  0.11663551308E+02  0.11664732798E+02  0.16598052307E+00 0.  0.
       11    1    1    2    0    0  0.32855900433E-02  0.22187295125E-02  0.33524298694E+00  0.33526681818E+00  0.51109989000E-03 0. -1.
     -623    1    1    2    0    0 -0.34677701137E-03 -0.42081656385E-02  0.12056938243E-02  0.25126700384E+02  0.25126700000E+02 0.  1.
     -611    1    3    3    0    0  0.19314395404E-01 -0.34396509962E-01  0.75672295535E+00  0.75781646651E+00  0.10000000000E-01 0.  1.
      611    1    3    3    0    0 -0.22253208436E-01  0.36385946088E-01  0.10906828353E+02  0.10906916332E+02  0.10000000000E-01 0. -1.
</event>
<event>
 7   0  0.6206631E-02  0.9118800E+02  0.7818608E-02  0.1180000E+00
       11   -1    0    0    0    0  0.00000000000E+00  0.00000000000E+00  0.11999999989E+02  0.12000000000E+02  0.51109989000E-03 0. -1.
     -623   -1    0    0    0    0  0.00000000000E+00  0.00000000000E+00  0.42561509872E-11  0.25126700000E+02  0.25126700000E+02 0. -1.
      622    2    1    2    0    0  0.13164542662E-02 -0.23337662466E-02  0.11988762108E+02  0.11989124415E+02  0.93167375632E-01 0.  0.
       11    1    1    2    0    0 -0.47125053386E-03  0.20750250112E-02  0.10653114170E-01  0.10875562999E-01  0.51109989000E-03 0. -1.
     -623    1    1    2    0    0 -0.84520373231E-03  0.25874123539E-03  0.58476660290E-03  0.25126700022E+02  0.25126700000E+02 0. -1.
     -611    1    3    3    0    0 -0.35860682788E-01 -0.89414902945E-02  0.92976365612E+01  0.92977153949E+01  0.10000000000E-01 0. -1.
      611    1    3    3    0    0  0.37177137055E-01  0.66077240479E-02  0.26911255471E+01  0.26914090198E+01  0.10000000000E-01 0.  1.
</event>
<event>
 7   0  0.6206631E-02  0.9118800E+02  0.7818608E-02  0.1180000E+00
       11   -1    0    0    0    0  0.00000000000E+00  0.00000000000E+00  0.11999999989E+02  0.12000000000E+02  0.51109989000E-03 0.  1.
     -623   -1    0    0    0    0  0.00000000000E+00  0.00000000000E+00  0.42561509872E-11  0.25126700000E+02  0.25126700000E+02 0.  1.
      622    2    1    2    0    0 -0.13517315347E-02  0.22419024630E-01  0.11799241733E+02  0.11799906833E+02  0.12325324586E+00 0.  0.
       11    1    1    2    0    0 -0.16774905569E-02 -0.24508801987E-01  0.19857838039E+00  0.20009280280E+00  0.51109989000E-03 0.  1.
     -623    1    1    2    0    0  0.30292220916E-02  0.20897773571E-02  0.21798759562E-02  0.25126700364E+02  0.25126700000E+02 0.  1.
     -611    1    3    3    0    0 -0.76238147980E-02 -0.92863221273E-02  0.19810885043E+00  0.19872462090E+00  0.10000000000E-01 0.  1.
      611    1    3    3    0    0  0.62720832633E-02  0.31705346758E-01  0.11601132882E+02  0.11601182212E+02  0.10000000000E-01 0.  1.
</event>
<event>
 7   0  0.6206631E-02  0.9118800E+02  0.7818608E-02  0.1180000E+00
       11   -1    0    0    0    0  0.00000000000E+00  0.00000000000E+00  0.11999999989E+02  0.12000000000E+02  0.51109989000E-03 0.  1.
     -623   -1    0    0    0    0  0.00000000000E+00  0.00000000000E+00  0.42561509872E-11  0.25126700000E+02  0.25126700000E+02 0. -1.
      622    2    1    2    0    0  0.10541610951E-02  0.15965941359E-02  0.11997537181E+02  0.11997793736E+02  0.78437714197E-01 0.  0.
       11    1    1    2    0    0  0.34864682995E-03 -0.94563410937E-03  0.18948244161E-02  0.22062096828E-02  0.51109989000E-03 0.  1.
     -623    1    1    2    0    0 -0.14028079250E-02 -0.65096002655E-03  0.56798394971E-03  0.25126700054E+02  0.25126700000E+02 0. -1.
     -611    1    3    3    0    0  0.23982699378E-01  0.28862908167E-01  0.45966344766E+01  0.45967985325E+01  0.10000000000E-01 0.  1.
      611    1    3    3    0    0 -0.22928538283E-01 -0.27266314031E-01  0.74009027042E+01  0.74009952038E+01  0.10000000000E-01 0.  1.
</event>
<event>
 7   0  0.6206631E-02  0.9118800E+02  0.7818608E-02  0.1180000E+00
       11   -1    0    0    0    0  0.00000000000E+00  0.00000000000E+00  0.11999999989E+02  0.12000000000E+02  0.51109989000E-03 0. -1.
     -623   -1    0    0    0    0  0.00000000000E+00  0.00000000000E+00  0.42561509872E-11  0.25126700000E+02  0.25126700000E+02 0. -1.
      622    2    1    2    0    0  0.63016686130E-02 -0.25644609180E-02  0.11916716976E+02  0.11917081099E+02  0.92909248749E-01 0.  0.
       11    1    1    2    0    0 -0.71275262644E-02  0.20119866664E-02  0.82585884898E-01  0.82918871969E-01  0.51109989000E-03 0. -1.
     -623    1    1    2    0    0  0.82585765135E-03  0.55247425168E-03  0.69712774894E-03  0.25126700029E+02  0.25126700000E+02 0. -1.
     -611    1    3    3    0    0  0.21594917110E-01  0.33130992588E-01  0.89519645790E+01  0.89520575192E+01  0.10000000000E-01 0. -1.
      611    1    3    3    0    0 -0.15293248497E-01 -0.35695453506E-01  0.29647523974E+01  0.29650235795E+01  0.10000000000E-01 0.  1.
</event>
<event>
 7   0  0.6206631E-02  0.9118800E+02  0.7818608E-02  0.1180000E+00
       11   -1    0    0    0    0  0.00000000000E+00  0.00000000000E+00  0.11999999989E+02  0.12000000000E+02  0.51109989000E-03 0.  1.
     -623   -1    0    0    0    0  0.00000000000E+00  0.00000000000E+00  0.42561509872E-11  0.25126700000E+02  0.25126700000E+02 0. -1.
      622    2    1    2    0    0  0.17800768733E-02 -0.17927794009E-02  0.11991583720E+02  0.11992074321E+02  0.10844358694E+00 0.  0.
       11    1    1    2    0    0  0.37135223804E-02 -0.84674888863E-03  0.69307661918E-02  0.79248959172E-02  0.51109989000E-03 0.  1.
     -623    1    1    2    0    0 -0.54935992537E-02  0.26395282895E-02  0.14855024314E-02  0.25126700783E+02  0.25126700000E+02 0. -1.
     -611    1    3    3    0    0 -0.43153422441E-01 -0.30885002726E-01  0.58651563765E+01  0.58654049666E+01  0.10000000000E-01 0.  1.
      611    1    3    3    0    0  0.44933499315E-01  0.29092223325E-01  0.61264273439E+01  0.61266693543E+01  0.10000000000E-01 0. -1.
</event>
<event>
 7   0  0.6206631E-02  0.9118800E+02  0.7818608E-02  0.1180000E+00
       11   -1    0    0    0    0  0.00000000000E+00  0.00000000000E+00  0.11999999989E+02  0.12000000000E+02  0.51109989000E-03 0. -1.
     -623   -1    0    0    0    0  0.00000000000E+00  0.00000000000E+00  0.42561509872E-11  0.25126700000E+02  0.25126700000E+02 0.  1.
      622    2    1    2    0    0  0.16512552664E-01 -0.85379921118E-03  0.49708090036E+01  0.49718109288E+01  0.98429508268E-01 0.  0.
       11    1    1    2    0    0 -0.12024363949E-01 -0.28356370522E-01  0.70281041589E+01  0.70281716682E+01  0.51109989000E-03 0. -1.
     -623    1    1    2    0    0 -0.44881887151E-02  0.29210169733E-01  0.10868266650E-02  0.25126717403E+02  0.25126700000E+02 0.  1.
     -611    1    3    3    0    0  0.13843536665E-01  0.41978168564E-01  0.14073370461E+01  0.14080665366E+01  0.10000000000E-01 0.  1.
      611    1    3    3    0    0  0.26690159988E-02 -0.42831967776E-01  0.35634719575E+01  0.35637443922E+01  0.10000000000E-01 0. -1.
</event>
<event>
 7   0  0.6206631E-02  0.9118800E+02  0.7818608E-02  0.1180000E+00
       11   -1    0    0    0    0  0.00000000000E+00  0.00000000000E+00  0.11999999989E+02  0.12000000000E+02  0.51109989000E-03 0. -1.
     -623   -1    0    0    0    0  0.00000000000E+00  0.00000000000E+00  0.42561509872E-11  0.25126700000E+02  0.25126700000E+02 0.  1.
      622    2    1    2    0    0 -0.10444654248E-02 -0.30007280327E-02  0.11968743973E+02  0.11969187450E+02  0.10298460931E+00 0.  0.
       11    1    1    2    0    0 -0.10404125900E-01 -0.13222074993E-02  0.28964941780E-01  0.30809465167E-01  0.51109989000E-03 0. -1.
     -623    1    1    2    0    0  0.11448591324E-01  0.43229355320E-02  0.22910741412E-02  0.25126703085E+02  0.25126700000E+02 0.  1.
     -611    1    3    3    0    0  0.34199032767E-02  0.69854149141E-02  0.11717428622E+02  0.11717435470E+02  0.10000000000E-01 0. -1.
      611    1    3    3    0    0 -0.44643687015E-02 -0.99861429468E-02  0.25131535156E+00  0.25175198027E+00  0.10000000000E-01 0.  1.
</event>
<event>
 7   0  0.6206631E-02  0.9118800E+02  0.7818608E-02  0.1180000E+00
       11   -1    0    0    0    0  0.00000000000E+00  0.00000000000E+00  0.11999999989E+02  0.12000000000E+02  0.51109989000E-03 0.  1.
     -623   -1    0    0    0    0  0.00000000000E+00  0.00000000000E+00  0.42561509872E-11  0.25126700000E+02  0.25126700000E+02 0.  1.
      622    2    1    2    0    0 -0.42339965786E-02  0.68192621825E-02  0.11297409739E+02  0.11297791171E+02  0.92488387166E-01 0.  0.
       11    1    1    2    0    0  0.75355198685E-02 -0.59584997599E-02  0.70214269138E+00  0.70220859298E+00  0.51109989000E-03 0.  1.
     -623    1    1    2    0    0 -0.33015232899E-02 -0.86076242259E-03  0.44755827347E-03  0.25126700236E+02  0.25126700000E+02 0.  1.
     -611    1    3    3    0    0  0.18190541593E-01 -0.27408623837E-01  0.84491886367E+01  0.84492585916E+01  0.10000000000E-01 0. -1.
      611    1    3    3    0    0 -0.22424538171E-01  0.34227886020E-01  0.28482211028E+01  0.28485325799E+01  0.10000000000E-01 0.  1.
</event>
<event>
 7   0  0.6206631E-02  0.9118800E+02  0.7818608E-02  0.1180000E+00
       11   -1    0    0    0    0  0.00000000000E+00  0.00000000000E+00  0.11999999989E+02  0.12000000000E+02  0.51109989000E-03 0. -1.
     -623   -1    0    0    0    0  0.00000000000E+00  0.00000000000E+00  0.42561509872E-11  0.25126700000E+02  0.25126700000E+02 0.  1.
      622    2    1    2    0    0 -0.32493310389E-02 -0.50431157688E-02  0.96451741324E+01  0.96453885735E+01  0.64036698378E-01 0.  0.
       11    1    1    2    0    0  0.27438040350E-02  0.50773269228E-02  0.23546042921E+01  0.23546114204E+01  0.51109989000E-03 0. -1.
     -623    1    1    2    0    0  0.50552700386E-03 -0.34211153975E-04  0.22156467621E-03  0.25126700006E+02  0.25126700000E+02 0.  1.
     -611    1    3    3    0    0  0.16712684857E-01  0.90374118454E-02  0.77594888662E+01  0.77595185710E+01  0.10000000000E-01 0. -1.
      611    1    3    3    0    0 -0.19962015896E-01 -0.14080527614E-01  0.18856852662E+01  0.18858700025E+01  0.10000000000E-01 0.  1.
</event>
<event>
 7   0  0.6206631E-02  0.9118800E+02  0.7818608E-02  0.1180000E+00
       11   -1    0    0    0    0  0.00000000000E+00  0.00000000000E+00  0.11999999989E+02  0.12000000000E+02  0.51109989000E-03 0.  1.
     -623   -1    0    0    0    0  0.00000000000E+00  0.00000000000E+00  0.42561509872E-11  0.25126700000E+02  0.25126700000E+02 0. -1.
      622    2    1    2    0    0 -0.62949910451E-03  0.35710772886E-02  0.10003807259E+02  0.10004228983E+02  0.91786326961E-01 0.  0.
       11    1    1    2    0    0  0.20380468202E-02 -0.56385006997E-02  0.19957618174E+01  0.19957708885E+01  0.51109989000E-03 0.  1.
     -623    1    1    2    0    0 -0.14085477156E-02  0.20674234111E-02  0.43091291762E-03  0.25126700128E+02  0.25126700000E+02 0. -1.
     -611    1    3    3    0    0  0.39057255372E-02  0.46181343155E-01  0.46964725388E+01  0.46967118582E+01  0.10000000000E-01 0.  1.
      611    1    3    3    0    0 -0.45352246417E-02 -0.42610265867E-01  0.53073347200E+01  0.53075171251E+01  0.10000000000E-01 0. -1.
</event>
<event>
 7   0  0.6206631E-02  0.9118800E+02  0.7818608E-02  0.1180000E+00
       11   -1    0    0    0    0  0.00000000000E+00  0.00000000000E+00  0.11999999989E+02  0.12000000000E+02  0.51109989000E-03 0. -1.
     -623   -1    0    0    0    0  0.00000000000E+00  0.00000000000E+00  0.42561509872E-11  0.25126700000E+02  0.25126700000E+02 0. -1.
      622    2    1    2    0    0 -0.39594850613E-01  0.62252638441E-01  0.53102841509E+01  0.53114214032E+01  0.81464196276E-01 0.  0.
       11    1    1    2    0    0  0.39498917972E-01 -0.66226915466E-01  0.66881336965E+01  0.66885782325E+01  0.51109989000E-03 0. -1.
     -623    1    1    2    0    0  0.95932641451E-04  0.39742770243E-02  0.15821416661E-02  0.25126700364E+02  0.25126700000E+02 0. -1.
     -611    1    3    3    0    0 -0.15838660409E-01  0.22798863172E-01  0.42373762465E+01  0.42374789799E+01  0.10000000000E-01 0.  1.
      611    1    3    3    0    0 -0.23756190204E-01  0.39453775269E-01  0.10729079045E+01  0.10739424232E+01  0.10000000000E-01 0. -1.
</event>
<event>
 7   0  0.6206631E-02  0.9118800E+02  0.7818608E-02  0.1180000E+00
       11   -1    0    0    0    0  0.00000000000E+00  0.00000000000E+00  0.11999999989E+02  0.12000000000E+02  0.51109989000E-03 0. -1.
     -623   -1    0    0    0    0  0.00000000000E+00  0.00000000000E+00  0.42561509872E-11  0.25126700000E+02  0.25126700000E+02 0.  1.
      622    2    1    2    0    0  0.18990146820E-01  0.10292408353E-01  0.11540713492E+02  0.11541229132E+02  0.10693642357E+00 0.  0.
       11    1    1    2    0    0 -0.41683130473E-02 -0.27809790451E-01  0.45789741232E+00  0.45876035216E+00  0.51109989000E-03 0. -1.
     -623    1    1    2    0    0 -0.14821833773E-01  0.17517382099E-01  0.13890845143E-02  0.25126710516E+02  0.25126700000E+02 0.  1.
     -611    1    3    3    0    0  0.44978508530E-01 -0.31146676247E-01  0.46026415834E+01  0.46029775936E+01  0.10000000000E-01 0. -1.
      611    1    3    3    0    0 -0.25988361710E-01  0.41439084599E-01  0.69380719088E+01  0.69382515380E+01  0.10000000000E-01 0. -1.
</event>
<event>
 7   0  0.6206631E-02  0.9118800E+02  0.7818608E-02  0.1180000E+00
       11   -1    0    0    0    0  0.00000000000E+00  0.00000000000E+00  0.11999999989E+02  0.12000000000E+02  0.51109989000E-03 0.  1.
     -623   -1    0    0    0    0  0.00000000000E+00  0.00000000000E+00  0.42561509872E-11  0.25126700000E+02  0.25126700000E+02 0.  1.
      622    2    1    2    0    0 -0.20400378974E-01  0.23370234030E+00  0.25310039481E+01  0.25439175168E+01  0.10248115677E+00 0.  0.
       11    1    1    2    0    0 -0.44214070682E-01 -0.40853641650E+00  0.94464476635E+01  0.94553810398E+01  0.51109989000E-03 0.  1.
     -623    1    1    2    0    0  0.64614449655E-01  0.17483407620E+00  0.22548377560E-01  0.25127401443E+02  0.25126700000E+02 0.  1.
     -611    1    3    3    0    0  0.37470685587E-01  0.57859025531E-01  0.79331115479E+00  0.79636317558E+00  0.10000000000E-01 0.  1.
      611    1    3    3    0    0 -0.57871064560E-01  0.17584331477E+00  0.17376927933E+01  0.17475543412E+01  0.10000000000E-01 0. -1.
</event>
<event>
 7   0  0.6206631E-02  0.9118800E+02  0.7818608E-02  0.1180000E+00
       11   -1    0    0    0    0  0.00000000000E+00  0.00000000000E+00  0.11999999989E+02  0.12000000000E+02  0.51109989000E-03 0. -1.
     -623   -1    0    0    0    0  0.00000000000E+00  0.00000000000E+00  0.42561509872E-11  0.25126700000E+02  0.25126700000E+02 0.  1.
      622    2    1    2    0    0 -0.10091786281E-01 -0.28245947917E-01  0.17623555149E+01  0.17649127964E+01  0.90114040882E-01 0.  0.
       11    1    1    2    0    0 -0.82419879180E-01  0.17516815355E-01  0.10234567556E+02  0.10234914420E+02  0.51109989000E-03 0. -1.
     -623    1    1    2    0    0  0.92511665461E-01  0.10729132562E-01  0.30769186756E-02  0.25126872784E+02  0.25126700000E+02 0.  1.
     -611    1    3    3    0    0  0.23042024898E-02 -0.57889444361E-01  0.91304224139E+00  0.91493312962E+00  0.10000000000E-01 0.  1.
      611    1    3    3    0    0 -0.12395988771E-01  0.29643496444E-01  0.84931327353E+00  0.84997966682E+00  0.10000000000E-01 0. -1.
</event>
<event>
 7   0  0.6206631E-02  0.9118800E+02  0.7818608E-02  0.1180000E+00
       11   -1    0    0    0    0  0.00000000000E+00  0.00000000000E+00  0.11999999989E+02  0.12000000000E+02  0.51109989000E-03 0. -1.
     -623   -1    0    0    0    0  0.00000000000E+00  0.00000000000E+00  0.42561509872E-11  0.25126700000E+02  0.25126700000E+02 0. -1.
      622    2    1    2    0    0  0.18696439737E-02  0.69787256305E-02  0.11989270269E+02  0.11989878830E+02  0.12058438838E+00 0.  0.
       11    1    1    2    0    0 -0.29552327564E-02  0.24803237044E-02  0.93409933571E-02  0.10119327368E-01  0.51109989000E-03 0. -1.
     -623    1    1    2    0    0  0.10855887827E-02 -0.94590493349E-02  0.13887271559E-02  0.25126701842E+02  0.25126700000E+02 0. -1.
     -611    1    3    3    0    0 -0.45233593282E-01 -0.21576109427E-01  0.85520427967E+01  0.85521954844E+01  0.10000000000E-01 0. -1.
      611    1    3    3    0    0  0.47103237256E-01  0.28554835058E-01  0.34372274719E+01  0.34376833460E+01  0.10000000000E-01 0.  1.
</event>
<event>
 7   0  0.6206631E-02  0.9118800E+02  0.7818608E-02  0.1180000E+00
       11   -1    0    0    0    0  0.00000000000E+00  0.00000000000E+00  0.11999999989E+02  0.12000000000E+02  0.51109989000E-03 0.  1.
     -623   -1    0    0    0    0  0.00000000000E+00  0.00000000000E+00  0.42561509872E-11  0.25126700000E+02  0.25126700000E+02 0.  1.
      622    2    1    2    0    0  0.24672824557E-02 -0.13388410704E-02  0.11809164742E+02  0.11809397169E+02  0.74038644836E-01 0.  0.
       11    1    1    2    0    0 -0.27944019264E-02  0.11272263074E-02  0.19057832246E+00  0.19060282668E+00  0.51109989000E-03 0.  1.
     -623    1    1    2    0    0  0.32711947073E-03  0.21161476304E-03  0.25692506665E-03  0.25126700004E+02  0.25126700000E+02 0.  1.
     -611    1    3    3    0    0  0.78968610320E-02  0.27907618394E-01  0.26323509817E+01  0.26325297504E+01  0.10000000000E-01 0. -1.
      611    1    3    3    0    0 -0.54295785764E-02 -0.29246459464E-01  0.91768137599E+01  0.91768674187E+01  0.10000000000E-01 0.  1.
</event>
<event>
 7   0  0.6206631E-02  0.9118800E+02  0.7818608E-02  0.1180000E+00
       11   -1    0    0    0    0  0.00000000000E+00  0.00000000000E+00  0.11999999989E+02  0.12000000000E+02  0.51109989000E-03 0.  1.
     -623   -1    0    0    0    0  0.00000000000E+00  0.00000000000E+00  0.42561509872E-11  0.25126700000E+02  0.25126700000E+02 0. -1.
      622    2    1    2    0    0 -0.81982167614E-02 -0.17592370896E-02  0.11732311333E+02  0.11732853987E+02  0.11253074306E+00 0.  0.
       11    1    1    2    0    0  0.80979966945E-02  0.41348761920E-02  0.26699061935E+00  0.26714589047E+00  0.51109989000E-03 0.  1.
     -623    1    1    2    0    0  0.10022006696E-03 -0.23756391024E-02  0.69803678132E-03  0.25126700122E+02  0.25126700000E+02 0. -1.
     -611    1    3    3    0    0 -0.16089964897E-01  0.18443937048E-01  0.67600776723E+00  0.67652462419E+00  0.10000000000E-01 0. -1.
      611    1    3    3    0    0  0.78917481351E-02 -0.20203174138E-01  0.11056303566E+02  0.11056329363E+02  0.10000000000E-01 0.  1.
</event>
<event>
 7   0  0.6206631E-02  0.9118800E+02  0.7818608E-02  0.1180000E+00
       11   -1    0    0    0    0  0.00000000000E+00  0.00000000000E+00  0.11999999989E+02  0.12000000000E+02  0.51109989000E-03 0. -1.
     -623   -1    0    0    0    0  0.00000000000E+00  0.00000000000E+00  0.42561509872E-11  0.25126700000E+02  0.25126700000E+02 0. -1.
      622    2    1    2    0    0  0.63583677908E-01 -0.28907824534E-02  0.10701204943E+02  0.10702053793E+02  0.11881463425E+00 0.  0.
       11    1    1    2    0    0 -0.60688912111E-01 -0.45383921142E-02  0.12965171816E+01  0.12979448387E+01  0.51109989000E-03 0. -1.
     -623    1    1    2    0    0 -0.28947657972E-02  0.74291745676E-02  0.22778646513E-02  0.25126701368E+02  0.25126700000E+02 0. -1.
     -611    1    3    3    0    0  0.74931734507E-01 -0.12459696185E-01  0.10419078588E+02  0.10419360280E+02  0.10000000000E-01 0. -1.
      611    1    3    3    0    0 -0.11348056599E-01  0.95689137319E-02  0.28212635461E+00  0.28269351330E+00  0.10000000000E-01 0. -1.
</event>
<event>
 7   0  0.6206631E-02  0.9118800E+02  0.7818608E-02  0.1180000E+00
       11   -1    0    0    0    0  0.00000000000E+00  0.00000000000E+00  0.11999999989E+02  0.12000000000E+02  0.51109989000E-03 0.  1.
     -623   -1    0    0    0    0  0.00000000000E+00  0.00000000000E+00  0.42561509872E-11  0.25126700000E+02  0.25126700000E+02 0. -1.
      622    2    1    2    0    0 -0.51768341261E-01 -0.39672958501E-01  0.32797322387E+01  0.32821164391E+01  0.10672795822E+00 0.  0.
       11    1    1    2    0    0  0.42445097872E-01  0.24278759053E-01  0.87177398377E+01  0.87178769884E+01  0.51109989000E-03 0.  1.
     -623    1    1    2    0    0  0.93232433889E-02  0.15394199448E-01  0.25279126648E-02  0.25126706573E+02  0.25126700000E+02 0. -1.
     -611    1    3    3    0    0 -0.39570160117E-01 -0.52921007138E-01  0.31540041012E+01  0.31547120789E+01  0.10000000000E-01 0.  1.
      611    1    3    3    0    0 -0.12198181144E-01  0.13248048637E-01  0.12572813751E+00  0.12740436012E+00  0.10000000000E-01 0.  1.
</event>
<event>
 7   0  0.6206631E-02  0.9118800E+02  0.7818608E-02  0.1180000E+00
       11   -1    0    0    0    0  0.00000000000E+00  0.00000000000E+00  0.11999999989E+02  0.12000000000E+02  0.51109989000E-03 0. -1.
     -623   -1    0    0    0    0  0.00000000000E+00  0.00000000000E+00  0.42561509872E-11  0.25126700000E+02  0.25126700000E+02 0.  1.
      622    2    1    2    0    0 -0.13102771138E-01 -0.19740056466E-01  0.10868885970E+02  0.10869830499E+02  0.14132053881E+00 0.  0.
       11    1    1    2    0    0  0.72601278815E-02  0.19068888870E-01  0.11299844664E+01  0.11301687872E+01  0.51109989000E-03 0. -1.
     -623    1    1    2    0    0  0.58426432565E-02  0.67116759581E-03  0.11295524906E-02  0.25126700714E+02  0.25126700000E+02 0.  1.
     -611    1    3    3    0    0  0.20908200273E-03  0.60140415384E-01  0.41140910018E+01  0.41145427066E+01  0.10000000000E-01 0.  1.
      611    1    3    3    0    0 -0.13311853141E-01 -0.79880471850E-01  0.67547949685E+01  0.67552877926E+01  0.10000000000E-01 0. -1.
</event>
<event>
 7   0  0.6206631E-02  0.9118800E+02  0.7818608E-02  0.1180000E+00
       11   -1    0    0    0    0  0.00000000000E+00  0.00000000000E+00  0.11999999989E+02  0.12000000000E+02  0.51109989000E-03 0. -1.
     -623   -1    0    0    0    0  0.00000000000E+00  0.00000000000E+00  0.42561509872E-11  0.25126700000E+02  0.25126700000E+02 0. -1.
      622    2    1    2    0    0 -0.15005104371E-01 -0.10972231038E+00  0.39380770329E+01  0.39408829762E+01  0.99215807125E-01 0.  0.
       11    1    1    2    0    0  0.15048797296E-02  0.96436733499E-01  0.80585324891E+01  0.80591096560E+01  0.51109989000E-03 0. -1.
     -623    1    1    2    0    0  0.13500224641E-01  0.13285576881E-01  0.33904671161E-02  0.25126707368E+02  0.25126700000E+02 0. -1.
     -611    1    3    3    0    0  0.11389047853E-01 -0.98843293835E-01  0.36175295606E+01  0.36189114149E+01  0.10000000000E-01 0. -1.
      611    1    3    3    0    0 -0.26394152224E-01 -0.10879016544E-01  0.32054747225E+00  0.32197156122E+00  0.10000000000E-01 0.  1.
</event>
<event>
 7   0  0.6206631E-02  0.9118800E+02  0.7818608E-02  0.1180000E+00
       11   -1    0    0    0    0  0.00000000000E+00  0.00000000000E+00  0.11999999989E+02  0.12000000000E+02  0.51109989000E-03 0. -1.
     -623   -1    0    0    0    0  0.00000000000E+00  0.00000000000E+00  0.42561509872E-11  0.25126700000E+02  0.25126700000E+02 0.  1.
      622    2    1    2    0    0 -0.81397420663E-02  0.62782437328E-02  0.11957513245E+02  0.11959099125E+02  0.19448189519E+00 0.  0.
       11    1    1    2    0    0  0.83795424525E-02 -0.31533352562E-02  0.39905303988E-01  0.40900547239E-01  0.51109989000E-03 0. -1.
     -623    1    1    2    0    0 -0.23980038623E-03 -0.31249084766E-02  0.25814405226E-02  0.25126700328E+02  0.25126700000E+02 0.  1.
     -611    1    3    3    0    0 -0.18812957330E-02  0.79994862336E-01  0.97320160557E+01  0.97323501389E+01  0.10000000000E-01 0. -1.
      611    1    3    3    0    0 -0.62584463333E-02 -0.73716618603E-01  0.22254971889E+01  0.22267489858E+01  0.10000000000E-01 0.  1.
</event>
<event>
 7   0  0.6206631E-02  0.9118800E+02  0.7818608E-02  0.1180000E+00
       11   -1    0    0    0    0  0.00000000000E+00  0.00000000000E+00  0.11999999989E+02  0.12000000000E+02  0.51109989000E-03 0. -1.
     -623   -1    0    0    0    0  0.00000000000E+00  0.00000000000E+00  0.42561509872E-11  0.25126700000E+02  0.25126700000E+02 0. -1.
      622    2    1    2    0    0  0.29350114403E-01  0.94042522509E-02  0.11591252016E+02  0.11591905759E+02  0.11918882836E+00 0.  0.
       11    1    1    2    0    0 -0.26678583298E-01 -0.12162419717E-01  0.40703892920E+00  0.40809388915E+00  0.51109989000E-03 0. -1.
     -623    1    1    2    0    0 -0.26715311043E-02  0.27581674657E-02  0.17090444177E-02  0.25126700352E+02  0.25126700000E+02 0. -1.
     -611    1    3    3    0    0 -0.29860160722E-01 -0.83756150997E-03  0.84742902523E+01  0.84743488016E+01  0.10000000000E-01 0. -1.
      611    1    3    3    0    0  0.59210275125E-01  0.10241813761E-01  0.31169617632E+01  0.31175569578E+01  0.10000000000E-01 0.  1.
</event>
<event>
 7   0  0.6206631E-02  0.9118800E+02  0.7818608E-02  0.1180000E+00
       11   -1    0    0    0    0  0.00000000000E+00  0.00000000000E+00  0.11999999989E+02  0.12000000000E+02  0.51109989000E-03 0.  1.
     -623   -1    0    0    0    0  0.00000000000E+00  0.00000000000E+00  0.42561509872E-11  0.25126700000E+02  0.25126700000E+02 0. -1.
      622    2    1    2    0    0  0.80351331496E-02 -0.17275466940E-01  0.95336752427E+01  0.95340336907E+01  0.80447356860E-01 0.  0.
       11    1    1    2    0    0 -0.72142944450E-03  0.43252146349E-02  0.24659579532E+01  0.24659619049E+01  0.51109989000E-03 0.  1.
     -623    1    1    2    0    0 -0.73137037051E-02  0.12950252305E-01  0.36679312501E-03  0.25126704404E+02  0.25126700000E+02 0. -1.
     -611    1    3    3    0    0  0.40994081695E-01 -0.93990331561E-03  0.38695847348E+01  0.38698149074E+01  0.10000000000E-01 0. -1.
      611    1    3    3    0    0 -0.32958948546E-01 -0.16335563624E-01  0.56640905080E+01  0.56642187833E+01  0.10000000000E-01 0.  1.
</event>
<event>
 7   0  0.6206631E-02  0.9118800E+02  0.7818608E-02  0.1180000E+00
       11   -1    0    0    0    0  0.00000000000E+00  0.00000000000E+00  0.11999999989E+02  0.12000000000E+02  0.51109989000E-03 0.  1.
     -623   -1    0    0    0    0  0.00000000000E+00  0.00000000000E+00  0.42561509872E-11  0.25126700000E+02  0.25126700000E+02 0.  1.
      622    2    1    2    0    0 -0.13809118881E-01  0.45589222473E-02  0.11793735653E+02  0.11794193622E+02  0.10291294906E+00 0.  0.
       11    1    1    2    0    0  0.15356233872E-01 -0.31779352966E-02  0.20520732510E+00  0.20580626980E+00  0.51109989000E-03 0.  1.
     -623    1    1    2    0    0 -0.15471149918E-02 -0.13809869507E-02  0.10570110676E-02  0.25126700108E+02  0.25126700000E+02 0.  1.
     -611    1    3    3    0    0 -0.15976986019E-01 -0.10387622110E-01  0.11419146471E+02  0.11419166751E+02  0.10000000000E-01 0.  1.
      611    1    3    3    0    0  0.21678671385E-02  0.14946544357E-01  0.37458918191E+00  0.37502687109E+00  0.10000000000E-01 0.  1.
</event>
<event>
 7   0  0.6206631E-02  0.9118800E+02  0.7818608E-02  0.1180000E+00
       11   -1    0    0    0    0  0.00000000000E+00  0.00000000000E+00  0.11999999989E+02  0.12000000000E+02  0.51109989000E-03 0. -1.
     -623   -1    0    0    0    0  0.00000000000E+00  0.00000000000E+00  0.42561509872E-11  0.25126700000E+02  0.25126700000E+02 0.  1.
      622    2    1    2    0    0 -0.27995068705E-02  0.30764852335E-01  0.11943955253E+02  0.11944501941E+02  0.11002375214E+00 0.  0.
       11    1    1    2    0    0  0.51487809147E-01  0.11424844863E-01  0.16903053729E-01  0.55384980088E-01  0.51109989000E-03 0. -1.
     -623    1    1    2    0    0 -0.48688302276E-01 -0.42189697198E-01  0.39141682267E-01  0.25126813079E+02  0.25126700000E+02 0.  1.
     -611    1    3    3    0    0  0.51083337115E-02  0.46259895876E-01  0.21532814035E+01  0.21538075298E+01  0.10000000000E-01 0.  1.
      611    1    3    3    0    0 -0.79078405820E-02 -0.15495043541E-01  0.97906738496E+01  0.97906944115E+01  0.10000000000E-01 0. -1.
</event>
<event>
 7   0  0.6206631E-02  0.9118800E+02  0.7818608E-02  0.1180000E+00
       11   -1    0    0    0    0  0.00000000000E+00  0.00000000000E+00  0.11999999989E+02  0.12000000000E+02  0.51109989000E-03 0.  1.
     -623   -1    0    0    0    0  0.00000000000E+00  0.00000000000E+00  0.42561509872E-11  0.25126700000E+02  0.25126700000E+02 0. -1.
      622    2    1    2    0    0 -0.67694830205E-02  0.42567795602E-01  0.11055038576E+02  0.11055480183E+02  0.88917441094E-01 0.  0.
       11    1    1    2    0    0 -0.91796504392E-02 -0.33021119432E-01  0.94389074190E+00  0.94451291901E+00  0.51109989000E-03 0.  1.
     -623    1    1    2    0    0  0.15949133460E-01 -0.95466761701E-02  0.10706712296E-02  0.25126706898E+02  0.25126700000E+02 0. -1.
     -611    1    3    3    0    0  0.37714146600E-01  0.11945950992E-01  0.61190785939E+01  0.61192146474E+01  0.10000000000E-01 0.  1.
      611    1    3    3    0    0 -0.44483629620E-01  0.30621844609E-01  0.49359599820E+01  0.49362655353E+01  0.10000000000E-01 0. -1.
</event>
<event>
 7   0  0.6206631E-02  0.9118800E+02  0.7818608E-02  0.1180000E+00
       11   -1    0    0    0    0  0.00000000000E+00  0.00000000000E+00  0.11999999989E+02  0.12000000000E+02  0.51109989000E-03 0.  1.
     -623   -1    0    0    0    0  0.00000000000E+00  0.00000000000E+00  0.42561509872E-11  0.25126700000E+02  0.25126700000E+02 0.  1.
      622    2    1    2    0    0 -0.58357575494E-02  0.10371132732E-02  0.11985114090E+02  0.11985473228E+02  0.92593851074E-01 0.  0.
       11    1    1    2    0    0 -0.37956502232E-02  0.83771006506E-03  0.13985743828E-01  0.14524839838E-01  0.51109989000E-03 0.  1.
     -623    1    1    2    0    0  0.96314077727E-02 -0.18748233383E-02  0.90015529660E-03  0.25126701932E+02  0.25126700000E+02 0.  1.
     -611    1    3    3    0    0  0.41261576894E-02 -0.43938355163E-01  0.53192416172E+01  0.53194340851E+01  0.10000000000E-01 0. -1.
      611    1    3    3    0    0 -0.99619152388E-02  0.44975468436E-01  0.66658724728E+01  0.66660391430E+01  0.10000000000E-01 0.  1.
</event>
<event>
 7   0  0.6206631E-02  0.9118800E+02  0.7818608E-02  0.1180000E+00
       11   -1    0    0    0    0  0.00000000000E+00  0.00000000000E+00  0.11999999989E+02  0.12000000000E+02  0.51109989000E-03 0. -1.
     -623   -1    0    0    0    0  0.00000000000E+00  0.00000000000E+00  0.42561509872E-11  0.25126700000E+02  0.25126700000E+02 0. -1.
      622    2    1    2    0    0 -0.92262155852E-02  0.12625991184E-01  0.43261108645E+01  0.43267403904E+01  0.72129434251E-01 0.  0.
       11    1    1    2    0    0  0.79150538172E-02 -0.11741693102E-01  0.76732464687E+01  0.76732595516E+01  0.51109989000E-03 0. -1.
     -623    1    1    2    0    0  0.13111617680E-02 -0.88429808224E-03  0.64265590140E-03  0.25126700058E+02  0.25126700000E+02 0. -1.
     -611    1    3    3    0    0  0.11951120885E-01  0.36092659011E-01  0.27490076429E+01  0.27492887317E+01  0.10000000000E-01 0. -1.
      611    1    3    3    0    0 -0.21177336470E-01 -0.23466667827E-01  0.15771032216E+01  0.15774516587E+01  0.10000000000E-01 0.  1.
</event>
<event>
 7   0  0.6206631E-02  0.9118800E+02  0.7818608E-02  0.1180000E+00
       11   -1    0    0    0    0  0.00000000000E+00  0.00000000000E+00  0.11999999989E+02  0.12000000000E+02  0.51109989000E-03 0.  1.
     -623   -1    0    0    0    0  0.00000000000E+00  0.00000000000E+00  0.42561509872E-11  0.25126700000E+02  0.25126700000E+02 0. -1.
      622    2    1    2    0    0  0.23024707776E-01 -0.15836504654E-01  0.84729433858E+01  0.84735791278E+01  0.99963410963E-01 0.  0.
       11    1    1    2    0    0 -0.35983700460E-01  0.30931433234E-01  0.35260936812E+01  0.35264129778E+01  0.51109989000E-03 0.  1.
     -623    1    1    2    0    0  0.12958992684E-01 -0.15094928580E-01  0.96292208212E-03  0.25126707894E+02  0.25126700000E+02 0. -1.
     -611    1    3    3    0    0  0.23769366208E-02  0.39997088011E-01  0.43148463325E+01  0.43150439500E+01  0.10000000000E-01 0.  1.
      611    1    3    3    0    0  0.20647771155E-01 -0.55833592665E-01  0.41580970533E+01  0.41585351779E+01  0.10000000000E-01 0. -1.
</event>
<event>
 7   0  0.6206631E-02  0.9118800E+02  0.7818608E-02  0.1180000E+00
       11   -1    0    0    0    0  0.00000000000E+00  0.00000000000E+00  0.11999999989E+02  0.12000000000E+02  0.51109989000E-03 0.  1.
     -623   -1    0    0    0    0  0.00000000000E+00  0.00000000000E+00  0.42561509872E-11  0.25126700000E+02  0.25126700000E+02 0.  1.
      622    2    1    2    0    0  0.13742915867E-01 -0.59386409759E-02  0.11897826015E+02  0.11898335734E+02  0.10911098820E+00 0.  0.
       11    1    1    2    0    0 -0.46962171535E-02  0.11433350032E-01  0.10090652132E+00  0.10166200478E+00  0.51109989000E-03 0.  1.
     -623    1    1    2    0    0 -0.90466987133E-02 -0.54947090565E-02  0.12674524036E-02  0.25126702261E+02  0.25126700000E+02 0.  1.
     -611    1    3    3    0    0  0.22063986000E-01  0.43116139924E-01  0.83535050811E+01  0.83536514748E+01  0.10000000000E-01 0.  1.
      611    1    3    3    0    0 -0.83210701334E-02 -0.49054780899E-01  0.35443209342E+01  0.35446842591E+01  0.10000000000E-01 0. -1.
</event>
<event>
 7   0  0.6206631E-02  0.9118800E+02  0.7818608E-02  0.1180000E+00
       11   -1    0    0    0    0  0.00000000000E+00  0.00000000000E+00  0.11999999989E+02  0.12000000000E+02  0.51109989000E-03 0.  1.
     -623   -1    0    0    0    0  0.00000000000E+00  0.00000000000E+00  0.42561509872E-11  0.25126700000E+02  0.25126700000E+02 0. -1.
      622    2    1    2    0    0 -0.21953689715E-02  0.10316048441E-02  0.11943412646E+02  0.11944091141E+02  0.12728579574E+00 0.  0.
       11    1    1    2    0    0  0.13212252149E-02 -0.16715314865E-02  0.55865874090E-01  0.55908825462E-01  0.51109989000E-03 0.  1.
     -623    1    1    2    0    0  0.87414375660E-03  0.63992664235E-03  0.72146944578E-03  0.25126700034E+02  0.25126700000E+02 0. -1.
     -611    1    3    3    0    0  0.49498685144E-01 -0.10737572920E-01  0.25448002013E+01  0.25453238458E+01  0.10000000000E-01 0. -1.
      611    1    3    3    0    0 -0.51694054116E-01  0.11769177765E-01  0.93986124443E+01  0.93987672950E+01  0.10000000000E-01 0.  1.
</event>
<event>
 7   0  0.6206631E-02  0.9118800E+02  0.7818608E-02  0.1180000E+00
       11   -1    0    0    0    0  0.00000000000E+00  0.00000000000E+00  0.11999999989E+02  0.12000000000E+02  0.51109989000E-03 0.  1.
     -623   -1    0    0    0    0  0.00000000000E+00  0.00000000000E+00  0.42561509872E-11  0.25126700000E+02  0.25126700000E+02 0.  1.
      622    2    1    2    0    0 -0.13970004173E-02  0.61380441644E-02  0.11926615420E+02  0.11926908659E+02  0.83397530830E-01 0.  0.
       11    1    1    2    0    0  0.96076060379E-02 -0.23140066481E-02  0.72416716966E-01  0.73089690380E-01  0.51109989000E-03 0.  1.
     -623    1    1    2    0    0 -0.82106056206E-02 -0.38240375163E-02  0.96785230317E-03  0.25126701651E+02  0.25126700000E+02 0.  1.
     -611    1    3    3    0    0 -0.40577167107E-01 -0.42723030530E-03  0.51610538777E+01  0.51612230932E+01  0.10000000000E-01 0. -1.
      611    1    3    3    0    0  0.39180166690E-01  0.65652744697E-02  0.67655615422E+01  0.67656855654E+01  0.10000000000E-01 0.  1.
</event>
<event>
 7   0  0.6206631E-02  0.9118800E+02  0.7818608E-02  0.1180000E+00
       11   -1    0    0    0    0  0.00000000000E+00  0.00000000000E+00  0.11999999989E+02  0.12000000000E+02  0.51109989000E-03 0. -1.
     -623   -1    0    0    0    0  0.00000000000E+00  0.00000000000E+00  0.42561509872E-11  0.25126700000E+02  0.25126700000E+02 0. -1.
      622    2    1    2    0    0  0.15419533979E-01 -0.74225843656E-02  0.11934691405E+02  0.11935285954E+02  0.11789402732E+00 0.  0.
       11    1    1    2    0    0 -0.10030569801E-01  0.13255386994E-01  0.62539162129E-01  0.64712638934E-01  0.51109989000E-03 0. -1.
     -623    1    1    2    0    0 -0.53889641786E-02 -0.58328026281E-02  0.27694219038E-02  0.25126701408E+02  0.25126700000E+02 0. -1.
     -611    1    3    3    0    0 -0.18143419028E-01 -0.13000854734E-02  0.10835246124E+02  0.10835266007E+02  0.10000000000E-01 0. -1.
      611    1    3    3    0    0  0.33562953007E-01 -0.61224988922E-02  0.10994452814E+01  0.11000199469E+01  0.10000000000E-01 0. -1.
</event>
<event>
 7   0  0.6206631E-02  0.9118800E+02  0.7818608E-02  0.1180000E+00
       11   -1    0    0    0    0  0.00000000000E+00  0.00000000000E+00  0.11999999989E+02  0.12000000000E+02  0.51109989000E-03 0.  1.
     -623   -1    0    0    0    0  0.00000000000E+00  0.00000000000E+00  0.42561509872E-11  0.25126700000E+02  0.25126700000E+02 0. -1.
      622    2    1    2    0    0 -0.14543941139E-01 -0.23079789417E-01  0.98641909507E+01  0.98647061825E+01  0.97060563607E-01 0.  0.
       11    1    1    2    0    0  0.14579538234E-01  0.23431710029E-01  0.21351153988E+01  0.21352938054E+01  0.51109989000E-03 0.  1.
     -623    1    1    2    0    0 -0.35597094303E-04 -0.35192061184E-03  0.69363962228E-03  0.25126700012E+02  0.25126700000E+02 0. -1.
     -611    1    3    3    0    0  0.10524491215E-01  0.34342859544E-01  0.34554808887E+01  0.34556820411E+01  0.10000000000E-01 0. -1.
      611    1    3    3    0    0 -0.25068432354E-01 -0.57422648961E-01  0.64087100619E+01  0.64090241414E+01  0.10000000000E-01 0.  1.
</event>
<event>
 7   0  0.6206631E-02  0.9118800E+02  0.7818608E-02  0.1180000E+00
       11   -1    0    0    0    0  0.00000000000E+00  0.00000000000E+00  0.11999999989E+02  0.12000000000E+02  0.51109989000E-03 0. -1.
     -623   -1    0    0    0    0  0.00000000000E+00  0.00000000000E+00  0.42561509872E-11  0.25126700000E+02  0.25126700000E+02 0. -1.
      622    2    1    2    0    0 -0.22056143055E-02 -0.31855446219E-02  0.11190025136E+02  0.11190404058E+02  0.92007728825E-01 0.  0.
       11    1    1    2    0    0 -0.47983466402E-03  0.28889260785E-02  0.80959033602E+00  0.80959579392E+00  0.51109989000E-03 0. -1.
     -623    1    1    2    0    0  0.26854489695E-02  0.29661854341E-03  0.38451711260E-03  0.25126700148E+02  0.25126700000E+02 0. -1.
     -611    1    3    3    0    0  0.39132516898E-03  0.41929715588E-01  0.40639211338E+01  0.40641497556E+01  0.10000000000E-01 0. -1.
      611    1    3    3    0    0 -0.25969394745E-02 -0.45115260210E-01  0.71261040022E+01  0.71262543023E+01  0.10000000000E-01 0.  1.
</event>
<event>
 7   0  0.6206631E-02  0.9118800E+02  0.7818608E-02  0.1180000E+00
       11   -1    0    0    0    0  0.00000000000E+00  0.00000000000E+00  0.11999999989E+02  0.12000000000E+02  0.51109989000E-03 0. -1.
     -623   -1    0    0    0    0  0.00000000000E+00  0.00000000000E+00  0.42561509872E-11  0.25126700000E+02  0.25126700000E+02 0. -1.
      622    2    1    2    0    0  0.14737308766E-01 -0.78983157869E-02  0.11433907192E+02  0.11434370591E+02  0.10157537282E+00 0.  0.
       11    1    1    2    0    0 -0.14801355247E-01  0.71308293778E-02  0.56539049720E+00  0.56562938784E+00  0.51109989000E-03 0. -1.
     -623    1    1    2    0    0  0.64046480389E-04  0.76748640917E-03  0.70229998606E-03  0.25126700022E+02  0.25126700000E+02 0. -1.
     -611    1    3    3    0    0  0.52787647985E-02  0.29425181732E-01  0.12889831061E+01  0.12893685099E+01  0.10000000000E-01 0.  1.
      611    1    3    3    0    0  0.94585439679E-02 -0.37323497519E-01  0.10144924086E+02  0.10145002081E+02  0.10000000000E-01 0. -1.
</event>
<event>
 7   0  0.6206631E-02  0.9118800E+02  0.7818608E-02  0.1180000E+00
       11   -1    0    0    0    0  0.00000000000E+00  0.00000000000E+00  0.11999999989E+02  0.12000000000E+02  0.51109989000E-03 0. -1.
     -623   -1    0    0    0    0  0.00000000000E+00  0.00000000000E+00  0.42561509872E-11  0.25126700000E+02  0.25126700000E+02 0.  1.
      622    2    1    2    0    0 -0.53583145527E-02 -0.42624184208E-02  0.11977220875E+02  0.11977812280E+02  0.11882858147E+00 0.  0.
       11    1    1    2    0    0  0.36578806937E-02  0.11617533357E-01  0.18536998651E-01  0.22186228040E-01  0.51109989000E-03 0. -1.
     -623    1    1    2    0    0  0.17004338590E-02 -0.73551149361E-02  0.42421150204E-02  0.25126701492E+02  0.25126700000E+02 0.  1.
     -611    1    3    3    0    0 -0.10844239017E-01 -0.42670414445E-01  0.19942095549E+01  0.19947205595E+01  0.10000000000E-01 0.  1.
      611    1    3    3    0    0  0.54859244642E-02  0.38407996024E-01  0.99830113206E+01  0.99830917203E+01  0.10000000000E-01 0. -1.
</event>
<event>
 7   0  0.6206631E-02  0.9118800E+02  0.7818608E-02  0.1180000E+00
       11   -1    0    0    0    0  0.00000000000E+00  0.00000000000E+00  0.11999999989E+02  0.12000000000E+02  0.51109989000E-03 0. -1.
     -623   -1    0    0    0    0  0.00000000000E+00  0.00000000000E+00  0.42561509872E-11  0.25126700000E+02  0.25126700000E+02 0.  1.
      622    2    1    2    0    0 -0.29524008905E-01  0.17323667557E-02  0.11572420060E+02  0.11572985466E+02  0.11050735375E+00 0.  0.
       11    1    1    2    0    0  0.30056280092E-01  0.13758320923E-03  0.42595497761E+00  0.42701440617E+00  0.51109989000E-03 0. -1.
     -623    1    1    2    0    0 -0.53227118736E-03 -0.18699499649E-02  0.16249511076E-02  0.25126700128E+02  0.25126700000E+02 0.  1.
     -611    1    3    3    0    0  0.57190156758E-03  0.13237020730E-01  0.26722650917E+00  0.26774157875E+00  0.10000000000E-01 0.  1.
      611    1    3    3    0    0 -0.30095910472E-01 -0.11504653974E-01  0.11305193551E+02  0.11305243887E+02  0.10000000000E-01 0. -1.
</event>
<event>
 7   0  0.6206631E-02  0.9118800E+02  0.7818608E-02  0.1180000E+00
       11   -1    0    0    0    0  0.00000000000E+00  0.00000000000E+00  0.11999999989E+02  0.12000000000E+02  0.51109989000E-03 0. -1.
     -623   -1    0    0    0    0  0.00000000000E+00  0.00000000000E+00  0.42561509872E-11  0.25126700000E+02  0.25126700000E+02 0.  1.
      622    2    1    2    0    0 -0.14032678158E-01  0.84245398045E-02  0.11551707499E+02  0.11552157123E+02  0.10059897833E+00 0.  0.
       11    1    1    2    0    0  0.16643857357E-01 -0.27577648302E-02  0.44752391421E+00  0.44784209077E+00  0.51109989000E-03 0. -1.
     -623    1    1    2    0    0 -0.26111791989E-02 -0.56667749743E-02  0.76857574819E-03  0.25126700786E+02  0.25126700000E+02 0.  1.
     -611    1    3    3    0    0  0.35775615346E-01 -0.20110887903E-01  0.58266002374E+01  0.58267533558E+01  0.10000000000E-01 0.  1.
      611    1    3    3    0    0 -0.49808293504E-01  0.28535427708E-01  0.57251072617E+01  0.57254037670E+01  0.10000000000E-01 0. -1.
</event>
<event>
 7   0  0.6206631E-02  0.9118800E+02  0.7818608E-02  0.1180000E+00
       11   -1    0    0    0    0  0.00000000000E+00  0.00000000000E+00  0.11999999989E+02  0.12000000000E+02  0.51109989000E-03 0. -1.
     -623   -1    0    0    0    0  0.00000000000E+00  0.00000000000E+00  0.42561509872E-11  0.25126700000E+02  0.25126700000E+02 0.  1.
      622    2    1    2    0    0  0.24848947251E-01  0.12531840934E-01  0.99271147106E+01  0.99274883334E+01  0.81508384205E-01 0.  0.
       11    1    1    2    0    0 -0.16640006961E-01 -0.21815425554E-01  0.20723269171E+01  0.20725086044E+01  0.51109989000E-03 0. -1.
     -623    1    1    2    0    0 -0.82089402903E-02  0.92835846202E-02  0.55836141523E-03  0.25126703062E+02  0.25126700000E+02 0.  1.
     -611    1    3    3    0    0 -0.18750776841E-01  0.16035114224E-02  0.88564250786E+00  0.88589887380E+00  0.10000000000E-01 0.  1.
      611    1    3    3    0    0  0.43599724092E-01  0.10928329511E-01  0.90414722027E+01  0.90415894596E+01  0.10000000000E-01 0. -1.
</event>
<event>
 7   0  0.6206631E-02  0.9118800E+02  0.7818608E-02  0.1180000E+00
       11   -1    0    0    0    0  0.00000000000E+00  0.00000000000E+00  0.11999999989E+02  0.12000000000E+02  0.51109989000E-03 0. -1.
     -623   -1    0    0    0    0  0.00000000000E+00  0.00000000000E+00  0.42561509872E-11  0.25126700000E+02  0.25126700000E+02 0.  1.
      622    2    1    2    0    0  0.13504613958E-02  0.13163656250E-03  0.11934343534E+02  0.11934761484E+02  0.99871235596E-01 0.  0.
       11    1    1    2    0    0 -0.17575843026E-03  0.84009899498E-03  0.65230817609E-01  0.65238466003E-01  0.51109989000E-03 0. -1.
     -623    1    1    2    0    0 -0.11747029655E-02 -0.97173555748E-03  0.42563788518E-03  0.25126700050E+02  0.25126700000E+02 0.  1.
     -611    1    3    3    0    0  0.33493365936E-01  0.24277408044E-01  0.27943087871E+01  0.27946328553E+01  0.10000000000E-01 0.  1.
      611    1    3    3    0    0 -0.32142904540E-01 -0.24145771481E-01  0.91400347465E+01  0.91401286288E+01  0.10000000000E-01 0. -1.
</event>
<event>
 7   0  0.6206631E-02  0.9118800E+02  0.7818608E-02  0.1180000E+00
       11   -1    0    0    0    0  0.00000000000E+00  0.00000000000E+00  0.11999999989E+02  0.12000000000E+02  0.51109989000E-03 0. -1.
     -623   -1    0    0    0    0  0.00000000000E+00  0.00000000000E+00  0.42561509872E-11  0.25126700000E+02  0.25126700000E+02 0. -1.
      622    2    1    2    0    0 -0.12813610386E-01 -0.10656123578E-01  0.11667375640E+02  0.11667802348E+02  0.98384764892E-01 0.  0.
       11    1    1    2    0    0  0.12236324153E-01  0.50741176837E-02  0.33193240593E+00  0.33219701628E+00  0.51109989000E-03 0. -1.
     -623    1    1    2    0    0  0.57728623251E-03  0.55820058939E-02  0.69194351383E-03  0.25126700636E+02  0.25126700000E+02 0. -1.
     -611    1    3    3    0    0  0.26161717293E-01 -0.15452117896E-01  0.94643311937E+01  0.94643852493E+01  0.10000000000E-01 0. -1.
      611    1    3    3    0    0 -0.38975327678E-01  0.47959943183E-02  0.22030444460E+01  0.22034170983E+01  0.10000000000E-01 0.  1.
</event>
<event>
 7   0  0.6206631E-02  0.9118800E+02  0.7818608E-02  0.1180000E+00
       11   -1    0    0    0    0  0.00000000000E+00  0.00000000000E+00  0.11999999989E+02  0.12000000000E+02  0.51109989000E-03 0.  1.
     -623   -1    0    0    0    0  0.00000000000E+00  0.00000000000E+00  0.42561509872E-11  0.25126700000E+02  0.25126700000E+02 0.  1.
      622    2    1    2    0    0 -0.64235753457E-02  0.24359433215E-02  0.11799034937E+02  0.11799382843E+02  0.90348321696E-01 0.  0.
       11    1    1    2    0    0  0.98369355641E-02 -0.12960005113E-02  0.20037073500E+00  0.20061689257E+00  0.51109989000E-03 0.  1.
     -623    1    1    2    0    0 -0.34133602184E-02 -0.11399428103E-02  0.59431675893E-03  0.25126700265E+02  0.25126700000E+02 0.  1.
     -611    1    3    3    0    0 -0.20313479579E-01  0.19579439667E-01  0.10842148859E+02  0.10842190178E+02  0.10000000000E-01 0.  1.
      611    1    3    3    0    0  0.13889904233E-01 -0.17143496345E-01  0.95688607886E+00  0.95719266443E+00  0.10000000000E-01 0. -1.
</event>
<event>
 7   0  0.6206631E-02  0.9118800E+02  0.7818608E-02  0.1180000E+00
       11   -1    0    0    0    0  0.00000000000E+00  0.00000000000E+00  0.11999999989E+02  0.12000000000E+02  0.51109989000E-03 0.  1.
     -623   -1    0    0    0    0  0.00000000000E+00  0.00000000000E+00  0.42561509872E-11  0.25126700000E+02  0.25126700000E+02 0. -1.
      622    2    1    2    0    0 -0.17361039582E-01  0.12276293275E+00  0.79269445757E+01  0.79287741946E+01  0.11678090338E+00 0.  0.
       11    1    1    2    0    0  0.73138806952E-01 -0.14481433702E+00  0.40679198210E+01  0.40711536950E+01  0.51109989000E-03 0.  1.
     -623    1    1    2    0    0 -0.55777767370E-01  0.22051404276E-01  0.51355924576E-02  0.25126772110E+02  0.25126700000E+02 0. -1.
     -611    1    3    3    0    0  0.89783444699E-02 -0.14081523915E-01  0.34946827415E+00  0.35000996360E+00  0.10000000000E-01 0.  1.
      611    1    3    3    0    0 -0.26339384052E-01  0.13684445666E+00  0.75774763015E+01  0.75787642310E+01  0.10000000000E-01 0.  1.
</event>
<event>
 7   0  0.6206631E-02  0.9118800E+02  0.7818608E-02  0.1180000E+00
       11   -1    0    0    0    0  0.00000000000E+00  0.00000000000E+00  0.11999999989E+02  0.12000000000E+02  0.51109989000E-03 0. -1.
     -623   -1    0    0    0    0  0.00000000000E+00  0.00000000000E+00  0.42561509872E-11  0.25126700000E+02  0.25126700000E+02 0. -1.
      622    2    1    2    0    0  0.30308621662E-02  0.37553010663E-02  0.11964309546E+02  0.11964805590E+02  0.10884208915E+00 0.  0.
       11    1    1    2    0    0 -0.44514136103E-02 -0.32733758541E-02  0.34754148489E-01  0.35194348026E-01  0.51109989000E-03 0. -1.
     -623    1    1    2    0    0  0.14205514441E-02 -0.48192521219E-03  0.93629466082E-03  0.25126700062E+02  0.25126700000E+02 0. -1.
     -611    1    3    3    0    0  0.30025895044E-01 -0.42955728123E-01  0.65883395459E+01  0.65885555869E+01  0.10000000000E-01 0.  1.
      611    1    3    3    0    0 -0.26995032878E-01  0.46711029190E-01  0.53759700000E+01  0.53762500029E+01  0.10000000000E-01 0. -1.
</event>
<event>
 7   0  0.6206631E-02  0.9118800E+02  0.7818608E-02  0.1180000E+00
       11   -1    0    0    0    0  0.00000000000E+00  0.00000000000E+00  0.11999999989E+02  0.12000000000E+02  0.51109989000E-03 0. -1.
     -623   -1    0    0    0    0  0.00000000000E+00  0.00000000000E+00  0.42561509872E-11  0.25126700000E+02  0.25126700000E+02 0. -1.
      622    2    1    2    0    0  0.54464689240E-02  0.42626040149E-03  0.11957371631E+02  0.11957769697E+02  0.97416427708E-01 0.  0.
       11    1    1    2    0    0 -0.58972325921E-02 -0.14342236321E-02  0.41788751091E-01  0.42230265102E-01  0.51109989000E-03 0. -1.
     -623    1    1    2    0    0  0.45076366809E-03  0.10079632306E-02  0.83960748002E-03  0.25126700038E+02  0.25126700000E+02 0. -1.
     -611    1    3    3    0    0  0.48522292882E-01 -0.12304943751E-01  0.56787532777E+01  0.56789827094E+01  0.10000000000E-01 0. -1.
      611    1    3    3    0    0 -0.43075823958E-01  0.12731204152E-01  0.62786183528E+01  0.62787869872E+01  0.10000000000E-01 0. -1.
</event>
<event>
 7   0  0.6206631E-02  0.9118800E+02  0.7818608E-02  0.1180000E+00
       11   -1    0    0    0    0  0.00000000000E+00  0.00000000000E+00  0.11999999989E+02  0.12000000000E+02  0.51109989000E-03 0. -1.
     -623   -1    0    0    0    0  0.00000000000E+00  0.00000000000E+00  0.42561509872E-11  0.25126700000E+02  0.25126700000E+02 0.  1.
      622    2    1    2    0    0 -0.13714902518E-01  0.30394949143E-02  0.11933433851E+02  0.11933782990E+02  0.90197765150E-01 0.  0.
       11    1    1    2    0    0 -0.23949343387E-01 -0.29868454584E-01  0.53969288835E-01  0.66171300338E-01  0.51109989000E-03 0. -1.
     -623    1    1    2    0    0  0.37664245905E-01  0.26828959670E-01  0.12596849210E-01  0.25126745710E+02  0.25126700000E+02 0.  1.
     -611    1    3    3    0    0  0.21257556289E-01  0.34562458335E-01  0.45340178438E+01  0.45342104335E+01  0.10000000000E-01 0.  1.
      611    1    3    3    0    0 -0.34972458807E-01 -0.31522963421E-01  0.73994160073E+01  0.73995725565E+01  0.10000000000E-01 0. -1.
</event>
<event>
 7   0  0.6206631E-02  0.9118800E+02  0.7818608E-02  0.1180000E+00
       11   -1    0    0    0    0  0.00000000000E+00  0.00000000000E+00  0.11999999989E+02  0.12000000000E+02  0.51109989000E-03 0.  1.
     -623   -1    0    0    0    0  0.00000000000E+00  0.00000000000E+00  0.42561509872E-11  0.25126700000E+02  0.25126700000E+02 0. -1.
      622    2    1    2    0    0 -0.18195074933E-01  0.11060632394E-01  0.11812905964E+02  0.11813608108E+02  0.12702678877E+00 0.  0.
       11    1    1    2    0    0  0.10551328550E-01 -0.10730385358E-01  0.18578147784E+00  0.18639069300E+00  0.51109989000E-03 0.  1.
     -623    1    1    2    0    0  0.76437463831E-02 -0.33024703626E-03  0.13125468784E-02  0.25126701199E+02  0.25126700000E+02 0. -1.
     -611    1    3    3    0    0 -0.35274916425E-01  0.41251860917E-01  0.10647728915E+02  0.10647871951E+02  0.10000000000E-01 0.  1.
      611    1    3    3    0    0  0.17079841493E-01 -0.30191228523E-01  0.11651770490E+01  0.11657361566E+01  0.10000000000E-01 0. -1.
</event>
<event>
 7   0  0.6206631E-02  0.9118800E+02  0.7818608E-02  0.1180000E+00
       11   -1    0    0    0    0  0.00000000000E+00  0.00000000000E+00  0.11999999989E+02  0.12000000000E+02  0.51109989000E-03 0.  1.
     -623   -1    0    0    0    0  0.00000000000E+00  0.00000000000E+00  0.42561509872E-11  0.25126700000E+02  0.25126700000E+02 0. -1.
      622    2    1    2    0    0 -0.14411900609E-01  0.94724026361E-02  0.11604311906E+02  0.11605946575E+02  0.19401974823E+00 0.  0.
       11    1    1    2    0    0  0.15773289815E-01 -0.56684740509E-02  0.39369606827E+00  0.39405302138E+00  0.51109989000E-03 0.  1.
     -623    1    1    2    0    0 -0.13613892059E-02 -0.38039285852E-02  0.19920151029E-02  0.25126700404E+02  0.25126700000E+02 0. -1.
     -611    1    3    3    0    0  0.32862576169E-01  0.45172734005E-01  0.11000280625E+01  0.11014909274E+01  0.10000000000E-01 0. -1.
      611    1    3    3    0    0 -0.47274476778E-01 -0.35700331369E-01  0.10504283843E+02  0.10504455647E+02  0.10000000000E-01 0.  1.
</event>
<event>
 7   0  0.6206631E-02  0.9118800E+02  0.7818608E-02  0.1180000E+00
       11   -1    0    0    0    0  0.00000000000E+00  0.00000000000E+00  0.11999999989E+02  0.12000000000E+02  0.51109989000E-03 0. -1.
     -623   -1    0    0    0    0  0.00000000000E+00  0.00000000000E+00  0.42561509872E-11  0.25126700000E+02  0.25126700000E+02 0. -1.
      622    2    1    2    0    0 -0.33073636928E-01  0.70816927957E-02  0.10540100599E+02  0.10540740986E+02  0.11115701880E+00 0.  0.
       11    1    1    2    0    0  0.94552576974E-02  0.25409016762E-01  0.14589749263E+01  0.14592268901E+01  0.51109989000E-03 0. -1.
     -623    1    1    2    0    0  0.23618379231E-01 -0.32490709557E-01  0.92446376533E-03  0.25126732124E+02  0.25126700000E+02 0. -1.
     -611    1    3    3    0    0 -0.17124157178E-01  0.16075202734E-02  0.31808466990E+00  0.31870625678E+00  0.10000000000E-01 0. -1.
      611    1    3    3    0    0 -0.15949479750E-01  0.54741725222E-02  0.10222015929E+02  0.10222034729E+02  0.10000000000E-01 0. -1.
</event>
<event>
 7   0  0.6206631E-02  0.9118800E+02  0.7818608E-02  0.1180000E+00
       11   -1    0    0    0    0  0.00000000000E+00  0.00000000000E+00  0.11999999989E+02  0.12000000000E+02  0.51109989000E-03 0. -1.
     -623   -1    0    0    0    0  0.00000000000E+00  0.00000000000E+00  0.42561509872E-11  0.25126700000E+02  0.25126700000E+02 0. -1.
      622    2    1    2    0    0  0.80929906055E-03  0.70576839360E-02  0.10452125845E+02  0.10452295664E+02  0.59156692611E-01 0.  0.
       11    1    1    2    0    0 -0.15064021779E-02 -0.65376777126E-02  0.15476896944E+01  0.15477043199E+01  0.51109989000E-03 0. -1.
     -623    1    1    2    0    0  0.69710311735E-03 -0.52000622342E-03  0.18444993607E-03  0.25126700016E+02  0.25126700000E+02 0. -1.
     -611    1    3    3    0    0 -0.55493065658E-02  0.86602911165E-02  0.63298792646E+00  0.63315046434E+00  0.10000000000E-01 0. -1.
      611    1    3    3    0    0  0.63586056264E-02 -0.16026071805E-02  0.98191379183E+01  0.98191452000E+01  0.10000000000E-01 0. -1.
</event>
<event>
 7   0  0.6206631E-02  0.9118800E+02  0.7818608E-02  0.1180000E+00
       11   -1    0    0    0    0  0.00000000000E+00  0.00000000000E+00  0.11999999989E+02  0.12000000000E+02  0.51109989000E-03 0.  1.
     -623   -1    0    0    0    0  0.00000000000E+00  0.00000000000E+00  0.42561509872E-11  0.25126700000E+02  0.25126700000E+02 0. -1.
      622    2    1    2    0    0  0.24433775217E-02 -0.54589594578E-02  0.11919036909E+02  0.11919581669E+02  0.11380048355E+00 0.  0.
       11    1    1    2    0    0 -0.38125024878E-02  0.61745352934E-02  0.80088554997E-01  0.80418268608E-01  0.51109989000E-03 0.  1.
     -623    1    1    2    0    0  0.13691249661E-02 -0.71557583553E-03  0.87452521105E-03  0.25126700063E+02  0.25126700000E+02 0. -1.
     -611    1    3    3    0    0 -0.33275803427E-01  0.34536446725E-01  0.32087971634E+01  0.32091711206E+01  0.10000000000E-01 0.  1.
      611    1    3    3    0    0  0.35719180949E-01 -0.39995406183E-01  0.87102397455E+01  0.87104105481E+01  0.10000000000E-01 0. -1.
</event>
<event>
 7   0  0.6206631E-02  0.9118800E+02  0.7818608E-02  0.1180000E+00
       11   -1    0    0    0    0  0.00000000000E+00  0.00000000000E+00  0.11999999989E+02  0.12000000000E+02  0.51109989000E-03 0.  1.
     -623   -1    0    0    0    0  0.00000000000E+00  0.00000000000E+00  0.42561509872E-11  0.25126700000E+02  0.25126700000E+02 0.  1.
      622    2    1    2    0    0 -0.98474569366E-02 -0.26584936544E-02  0.11767132255E+02  0.11767409638E+02  0.80150117045E-01 0.  0.
       11    1    1    2    0    0  0.92963149020E-02  0.31283924683E-02  0.23238287401E+00  0.23259034732E+00  0.51109989000E-03 0.  1.
     -623    1    1    2    0    0  0.55114203456E-03 -0.46989881392E-03  0.48486052201E-03  0.25126700015E+02  0.25126700000E+02 0.  1.
     -611    1    3    3    0    0 -0.41500026424E-01 -0.14103589393E-01  0.73755997081E+01  0.73757367237E+01  0.10000000000E-01 0.  1.
      611    1    3    3    0    0  0.31652569488E-01  0.11445095739E-01  0.43915325465E+01  0.43916729138E+01  0.10000000000E-01 0. -1.
</event>
<event>
 7   0  0.6206631E-02  0.9118800E+02  0.7818608E-02  0.1180000E+00
       11   -1    0    0    0    0  0.00000000000E+00  0.00000000000E+00  0.11999999989E+02  0.12000000000E+02  0.51109989000E-03 0.  1.
     -623   -1    0    0    0    0  0.00000000000E+00  0.00000000000E+00  0.42561509872E-11  0.25126700000E+02  0.25126700000E+02 0.  1.
      622    2    1    2    0    0 -0.18136767338E-01  0.12475091531E-01  0.11810652115E+02  0.11811157839E+02  0.10705853900E+00 0.  0.
       11    1    1    2    0    0  0.25605015951E-01 -0.90284675835E-02  0.18687807860E+00  0.18884069358E+00  0.51109989000E-03 0.  1.
     -623    1    1    2    0    0 -0.74682486132E-02 -0.34466239475E-02  0.24697950986E-02  0.25126701468E+02  0.25126700000E+02 0.  1.
     -611    1    3    3    0    0 -0.21394812337E-01  0.17809141458E-01  0.87576726429E+00  0.87626662878E+00  0.10000000000E-01 0. -1.
      611    1    3    3    0    0  0.32580449991E-02 -0.53340499265E-02  0.10934884851E+02  0.10934891210E+02  0.10000000000E-01 0.  1.
</event>
<event>
 7   0  0.6206631E-02  0.9118800E+02  0.7818608E-02  0.1180000E+00
       11   -1    0    0    0    0  0.00000000000E+00  0.00000000000E+00  0.11999999989E+02  0.12000000000E+02  0.51109989000E-03 0. -1.
     -623   -1    0    0    0    0  0.00000000000E+00  0.00000000000E+00  0.42561509872E-11  0.25126700000E+02  0.25126700000E+02 0.  1.
      622    2    1    2    0    0  0.73069330299E-02 -0.38541413831E-02  0.11223237176E+02  0.11223547614E+02  0.83066802963E-01 0.  0.
       11    1    1    2    0    0 -0.21038456405E-02  0.21983499713E-03  0.77644853282E+00  0.77645158242E+00  0.51109989000E-03 0. -1.
     -623    1    1    2    0    0 -0.52030873893E-02  0.36343063859E-02  0.31428042305E-03  0.25126700804E+02  0.25126700000E+02 0.  1.
     -611    1    3    3    0    0 -0.32127470410E-01  0.11950492693E-01  0.33700386239E+01  0.33702277838E+01  0.10000000000E-01 0.  1.
      611    1    3    3    0    0  0.39434403440E-01 -0.15804634076E-01  0.78531985520E+01  0.78533198303E+01  0.10000000000E-01 0. -1.
</event>
<event>
 7   0  0.6206631E-02  0.9118800E+02  0.7818608E-02  0.1180000E+00
       11   -1    0    0    0    0  0.00000000000E+00  0.00000000000E+00  0.11999999989E+02  0.12000000000E+02  0.51109989000E-03 0.  1.
     -623   -1    0    0    0    0  0.00000000000E+00  0.00000000000E+00  0.42561509872E-11  0.25126700000E+02  0.25126700000E+02 0.  1.
      622    2    1    2    0    0  0.53136711317E-02  0.97796652368E-02  0.11960180634E+02  0.11960774558E+02  0.11867326300E+00 0.  0.
       11    1    1    2    0    0 -0.13175316422E-01  0.51445219132E-02  0.36576747601E-01  0.39219571093E-01  0.51109989000E-03 0.  1.
     -623    1    1    2    0    0  0.78616452900E-02 -0.14924187150E-01  0.32426075026E-02  0.25126705871E+02  0.25126700000E+02 0.  1.
     -611    1    3    3    0    0 -0.12404876702E-01  0.36223993982E-01  0.14471637121E+01  0.14477046896E+01  0.10000000000E-01 0.  1.
      611    1    3    3    0    0  0.17718547833E-01 -0.26444328746E-01  0.10513016922E+02  0.10513069868E+02  0.10000000000E-01 0.  1.
</event>
<event>
 7   0  0.6206631E-02  0.9118800E+02  0.7818608E-02  0.1180000E+00
       11   -1    0    0    0    0  0.00000000000E+00  0.00000000000E+00  0.11999999989E+02  0.12000000000E+02  0.51109989000E-03 0. -1.
     -623   -1    0    0    0    0  0.00000000000E+00  0.00000000000E+00  0.42561509872E-11  0.25126700000E+02  0.25126700000E+02 0. -1.
      622    2    1    2    0    0 -0.36799396964E-01  0.14272454823E-01  0.52140173939E+01  0.52153596411E+01  0.11153879922E+00 0.  0.
       11    1    1    2    0    0  0.42556680698E-01  0.43577382622E-01  0.67842996049E+01  0.67845730484E+01  0.51109989000E-03 0. -1.
     -623    1    1    2    0    0 -0.57572837340E-02 -0.57849837446E-01  0.16829903078E-02  0.25126767310E+02  0.25126700000E+02 0. -1.
     -611    1    3    3    0    0  0.13364206652E-01  0.51424597332E-01  0.20644880979E+01  0.20651959224E+01  0.10000000000E-01 0.  1.
      611    1    3    3    0    0 -0.50163603616E-01 -0.37152142508E-01  0.31495292960E+01  0.31501637188E+01  0.10000000000E-01 0. -1.
</event>
<event>
 7   0  0.6206631E-02  0.9118800E+02  0.7818608E-02  0.1180000E+00
       11   -1    0    0    0    0  0.00000000000E+00  0.00000000000E+00  0.11999999989E+02  0.12000000000E+02  0.51109989000E-03 0. -1.
     -623   -1    0    0    0    0  0.00000000000E+00  0.00000000000E+00  0.42561509872E-11  0.25126700000E+02  0.25126700000E+02 0.  1.
      622    2    1    2    0    0 -0.49187808975E-02 -0.33176570657E-01  0.99267952658E+01  0.99272632364E+01  0.90367236848E-01 0.  0.
       11    1    1    2    0    0  0.94629435176E-02  0.36388759933E-01  0.20723950231E+01  0.20727361343E+01  0.51109989000E-03 0. -1.
     -623    1    1    2    0    0 -0.45441626201E-02 -0.32121892760E-02  0.80970017843E-03  0.25126700629E+02  0.25126700000E+02 0.  1.
     -611    1    3    3    0    0  0.86016904704E-02 -0.60819892672E-01  0.55653997674E+01  0.55657477143E+01  0.10000000000E-01 0. -1.
      611    1    3    3    0    0 -0.13520471368E-01  0.27643322015E-01  0.43613954984E+01  0.43615155221E+01  0.10000000000E-01 0.  1.
</event>
<event>
 7   0  0.6206631E-02  0.9118800E+02  0.7818608E-02  0.1180000E+00
       11   -1    0    0    0    0  0.00000000000E+00  0.00000000000E+00  0.11999999989E+02  0.12000000000E+02  0.51109989000E-03 0.  1.
     -623   -1    0    0    0    0  0.00000000000E+00  0.00000000000E+00  0.42561509872E-11  0.25126700000E+02  0.25126700000E+02 0.  1.
      622    2    1    2    0    0 -0.79835028930E-01  0.22571500081E-01  0.28227886518E+01  0.28257245291E+01  0.98489781902E-01 0.  0.
       11    1    1    2    0    0  0.87065712461E-01 -0.12544026651E-01  0.91738504695E+01  0.91742722049E+01  0.51109989000E-03 0.  1.
     -623    1    1    2    0    0 -0.72306835305E-02 -0.10027473431E-01  0.33608677912E-02  0.25126703266E+02  0.25126700000E+02 0.  1.
     -611    1    3    3    0    0  0.12280797146E-01 -0.20212616136E-01  0.72532890367E+00  0.72578329157E+00  0.10000000000E-01 0. -1.
      611    1    3    3    0    0 -0.92115826077E-01  0.42784116218E-01  0.20974597481E+01  0.20999412375E+01  0.10000000000E-01 0.  1.
</event>
<event>
 7   0  0.6206631E-02  0.9118800E+02  0.7818608E-02  0.1180000E+00
       11   -1    0    0    0    0  0.00000000000E+00  0.00000000000E+00  0.11999999989E+02  0.12000000000E+02  0.51109989000E-03 0. -1.
     -623   -1    0    0    0    0  0.00000000000E+00  0.00000000000E+00  0.42561509872E-11  0.25126700000E+02  0.25126700000E+02 0. -1.
      622    2    1    2    0    0  0.51580361951E-02  0.16540629391E-01  0.11645585170E+02  0.11646160882E+02  0.11449508345E+00 0.  0.
       11    1    1    2    0    0 -0.64142131374E-02 -0.17338797096E-01  0.35335539833E+00  0.35383905207E+00  0.51109989000E-03 0. -1.
     -623    1    1    2    0    0  0.12561769423E-02  0.79816770460E-03  0.10594205890E-02  0.25126700066E+02  0.25126700000E+02 0. -1.
     -611    1    3    3    0    0  0.58801310508E-01  0.96728677083E-02  0.65631083787E+01  0.65633865305E+01  0.10000000000E-01 0.  1.
      611    1    3    3    0    0 -0.53643274313E-01  0.68677616826E-02  0.50824767915E+01  0.50827743510E+01  0.10000000000E-01 0. -1.
</event>
<event>
 7   0  0.6206631E-02  0.9118800E+02  0.7818608E-02  0.1180000E+00
       11   -1    0    0    0    0  0.00000000000E+00  0.00000000000E+00  0.11999999989E+02  0.12000000000E+02  0.51109989000E-03 0. -1.
     -623   -1    0    0    0    0  0.00000000000E+00  0.00000000000E+00  0.42561509872E-11  0.25126700000E+02  0.25126700000E+02 0.  1.
      622    2    1    2    0    0 -0.15811308169E-02  0.41352830609E-02  0.11939325870E+02  0.11939623600E+02  0.84201499251E-01 0.  0.
       11    1    1    2    0    0  0.19973080113E-02 -0.39472914897E-03  0.60339614593E-01  0.60376115830E-01  0.51109989000E-03 0. -1.
     -623    1    1    2    0    0 -0.41617719442E-03 -0.37405539119E-02  0.33450501505E-03  0.25126700284E+02  0.25126700000E+02 0.  1.
     -611    1    3    3    0    0  0.29346290234E-01 -0.76770500167E-02  0.94882790769E+01  0.94883328347E+01  0.10000000000E-01 0. -1.
      611    1    3    3    0    0 -0.30927421051E-01  0.11812333078E-01  0.24510467927E+01  0.24512907654E+01  0.10000000000E-01 0.  1.
</event>
<event>
 7   0  0.6206631E-02  0.9118800E+02  0.7818608E-02  0.1180000E+00
       11   -1    0    0    0    0  0.00000000000E+00  0.00000000000E+00  0.11999999989E+02  0.12000000000E+02  0.51109989000E-03 0.  1.
     -623   -1    0    0    0    0  0.00000000000E+00  0.00000000000E+00  0.42561509872E-11  0.25126700000E+02  0.25126700000E+02 0.  1.
      622    2    1    2    0    0 -0.28249117225E-01 -0.31086079950E-01  0.11354657754E+02  0.11355553594E+02  0.13630981695E+00 0.  0.
       11    1    1    2    0    0 -0.33119410623E-02  0.13999492029E-01  0.64425995421E+00  0.64442075118E+00  0.51109989000E-03 0.  1.
     -623    1    1    2    0    0  0.31561058287E-01  0.17086587920E-01  0.10822808535E-02  0.25126725654E+02  0.25126700000E+02 0.  1.
     -611    1    3    3    0    0 -0.23324212814E-02 -0.23846977471E-01  0.10878664676E+02  0.10878695659E+02  0.10000000000E-01 0.  1.
      611    1    3    3    0    0 -0.25916695944E-01 -0.72391024784E-02  0.47599307808E+00  0.47685793494E+00  0.10000000000E-01 0. -1.
</event>
<event>
 7   0  0.6206631E-02  0.9118800E+02  0.7818608E-02  0.1180000E+00
       11   -1    0    0    0    0  0.00000000000E+00  0.00000000000E+00  0.11999999989E+02  0.12000000000E+02  0.51109989000E-03 0. -1.
     -623   -1    0    0    0    0  0.00000000000E+00  0.00000000000E+00  0.42561509872E-11  0.25126700000E+02  0.25126700000E+02 0.  1.
      622    2    1    2    0    0  0.22897979451E-03 -0.15162906322E-01  0.91883599449E+01  0.91890890540E+01  0.11475712709E+00 0.  0.
       11    1    1    2    0    0 -0.83515595853E-03  0.13053531170E-01  0.28108803585E+01  0.28109108387E+01  0.51109989000E-03 0. -1.
     -623    1    1    2    0    0  0.60617616402E-03  0.21093751517E-02  0.75968571797E-03  0.25126700107E+02  0.25126700000E+02 0.  1.
     -611    1    3    3    0    0  0.46947887082E-01 -0.37611977324E-01  0.40687575610E+01  0.40692145256E+01  0.10000000000E-01 0.  1.
      611    1    3    3    0    0 -0.46718907287E-01  0.22449071002E-01  0.51196023839E+01  0.51198745284E+01  0.10000000000E-01 0. -1.
</event>
<event>
 7   0  0.6206631E-02  0.9118800E+02  0.7818608E-02  0.1180000E+00
       11   -1    0    0    0    0  0.00000000000E+00  0.00000000000E+00  0.11999999989E+02  0.12000000000E+02  0.51109989000E-03 0.  1.
     -623   -1    0    0    0    0  0.00000000000E+00  0.00000000000E+00  0.42561509872E-11  0.25126700000E+02  0.25126700000E+02 0. -1.
      622    2    1    2    0    0  0.22297354630E-01  0.35116023430E-01  0.11808380660E+02  0.11809191071E+02  0.13194560474E+00 0.  0.
       11    1    1    2    0    0 -0.47283608119E-01 -0.44146029491E-01  0.17949010432E+00  0.19079195552E+00  0.51109989000E-03 0.  1.
     -623    1    1    2    0    0  0.24986253490E-01  0.90300060607E-02  0.12129225141E-01  0.25126716973E+02  0.25126700000E+02 0. -1.
     -611    1    3    3    0    0  0.65361388018E-01  0.50571766545E-01  0.54253045345E+01  0.54259431352E+01  0.10000000000E-01 0. -1.
      611    1    3    3    0    0 -0.43064033388E-01 -0.15455743114E-01  0.63830761252E+01  0.63832479358E+01  0.10000000000E-01 0.  1.
</event>
<event>
 7   0  0.6206631E-02  0.9118800E+02  0.7818608E-02  0.1180000E+00
       11   -1    0    0    0    0  0.00000000000E+00  0.00000000000E+00  0.11999999989E+02  0.12000000000E+02  0.51109989000E-03 0.  1.
     -623   -1    0    0    0    0  0.00000000000E+00  0.00000000000E+00  0.42561509872E-11  0.25126700000E+02  0.25126700000E+02 0.  1.
      622    2    1    2    0    0 -0.45976010667E-02 -0.10978447672E-01  0.11956832265E+02  0.11957273690E+02  0.10205199394E+00 0.  0.
       11    1    1    2    0    0  0.69406425377E-02 -0.54173615122E-02  0.41800555676E-01  0.42720814629E-01  0.51109989000E-03 0.  1.
     -623    1    1    2    0    0 -0.23430414709E-02  0.16395809184E-01  0.13671684114E-02  0.25126705496E+02  0.25126700000E+02 0.  1.
     -611    1    3    3    0    0  0.40137553269E-01  0.18814058063E-01  0.41162349236E+01  0.41164857510E+01  0.10000000000E-01 0. -1.
      611    1    3    3    0    0 -0.44735154336E-01 -0.29792505735E-01  0.78405973414E+01  0.78407879386E+01  0.10000000000E-01 0.  1.
</event>
<event>
 7   0  0.6206631E-02  0.9118800E+02  0.7818608E-02  0.1180000E+00
       11   -1    0    0    0    0  0.00000000000E+00  0.00000000000E+00  0.11999999989E+02  0.12000000000E+02  0.51109989000E-03 0. -1.
     -623   -1    0    0    0    0  0.00000000000E+00  0.00000000000E+00  0.42561509872E-11  0.25126700000E+02  0.25126700000E+02 0. -1.
      622    2    1    2    0    0  0.42307722919E-01 -0.31690164818E-02  0.11530249993E+02  0.11530722311E+02  0.95352732695E-01 0.  0.
       11    1    1    2    0    0 -0.40140952026E-01 -0.96620801003E-03  0.46755594452E+00  0.46927715912E+00  0.51109989000E-03 0. -1.
     -623    1    1    2    0    0 -0.21667708929E-02  0.41352244919E-02  0.21940519623E-02  0.25126700529E+02  0.25126700000E+02 0. -1.
     -611    1    3    3    0    0 -0.10321576492E-01  0.21878168358E-01  0.11258544289E+01  0.11261586852E+01  0.10000000000E-01 0.  1.
      611    1    3    3    0    0  0.52629299411E-01 -0.25047184840E-01  0.10404395564E+02  0.10404563626E+02  0.10000000000E-01 0. -1.
</event>
<event>
 7   0  0.6206631E-02  0.9118800E+02  0.7818608E-02  0.1180000E+00
       11   -1    0    0    0    0  0.00000000000E+00  0.00000000000E+00  0.11999999989E+02  0.12000000000E+02  0.51109989000E-03 0. -1.
     -623   -1    0    0    0    0  0.00000000000E+00  0.00000000000E+00  0.42561509872E-11  0.25126700000E+02  0.25126700000E+02 0. -1.
      622    2    1    2    0    0 -0.99278687529E-01 -0.14595560783E+00  0.10035832382E+02  0.10038673330E+02  0.16084565182E+00 0.  0.
       11    1    1    2    0    0  0.10969543419E+00  0.13963758786E+00  0.19532663517E+01  0.19613213521E+01  0.51109989000E-03 0. -1.
     -623    1    1    2    0    0 -0.10416746656E-01  0.63180199756E-02  0.10901255521E-01  0.25126705318E+02  0.25126700000E+02 0. -1.
     -611    1    3    3    0    0 -0.84838850813E-01 -0.68524069577E-01  0.24724180336E+01  0.24748422398E+01  0.10000000000E-01 0.  1.
      611    1    3    3    0    0 -0.14439836716E-01 -0.77431538254E-01  0.75634143483E+01  0.75638310899E+01  0.10000000000E-01 0. -1.
</event>
<event>
 7   0  0.6206631E-02  0.9118800E+02  0.7818608E-02  0.1180000E+00
       11   -1    0    0    0    0  0.00000000000E+00  0.00000000000E+00  0.11999999989E+02  0.12000000000E+02  0.51109989000E-03 0.  1.
     -623   -1    0    0    0    0  0.00000000000E+00  0.00000000000E+00  0.42561509872E-11  0.25126700000E+02  0.25126700000E+02 0.  1.
      622    2    1    2    0    0  0.30650036621E-02  0.99014189999E-03  0.11969576874E+02  0.11969934221E+02  0.92435610298E-01 0.  0.
       11    1    1    2    0    0 -0.26235871160E-02  0.10519843326E-02  0.29928154858E-01  0.30065687365E-01  0.51109989000E-03 0.  1.
     -623    1    1    2    0    0 -0.44141654613E-03 -0.20421262326E-02  0.49496053992E-03  0.25126700092E+02  0.25126700000E+02 0.  1.
     -611    1    3    3    0    0 -0.11299363262E-01  0.29231542940E-01  0.10154457177E+02  0.10154510462E+02  0.10000000000E-01 0.  1.
      611    1    3    3    0    0  0.14364366925E-01 -0.28241401040E-01  0.18151196968E+01  0.18154237592E+01  0.10000000000E-01 0. -1.
</event>
<event>
 7   0  0.6206631E-02  0.9118800E+02  0.7818608E-02  0.1180000E+00
       11   -1    0    0    0    0  0.00000000000E+00  0.00000000000E+00  0.11999999989E+02  0.12000000000E+02  0.51109989000E-03 0. -1.
     -623   -1    0    0    0    0  0.00000000000E+00  0.00000000000E+00  0.42561509872E-11  0.25126700000E+02  0.25126700000E+02 0.  1.
      622    2    1    2    0    0 -0.15567182913E-01  0.28360648765E-01  0.11657711733E+02  0.11658590258E+02  0.13941765455E+00 0.  0.
       11    1    1    2    0    0  0.22661111340E-01 -0.30265706239E-01  0.33930805810E+00  0.34140849207E+00  0.51109989000E-03 0. -1.
     -623    1    1    2    0    0 -0.70939284273E-02  0.19050574747E-02  0.29801980912E-02  0.25126701250E+02  0.25126700000E+02 0.  1.
     -611    1    3    3    0    0  0.15407014938E-01 -0.48468056503E-01  0.64694182253E+01  0.64696258549E+01  0.10000000000E-01 0. -1.
      611    1    3    3    0    0 -0.30974197851E-01  0.76828705268E-01  0.51882935077E+01  0.51889644027E+01  0.10000000000E-01 0.  1.
</event>
<event>
 7   0  0.6206631E-02  0.9118800E+02  0.7818608E-02  0.1180000E+00
       11   -1    0    0    0    0  0.00000000000E+00  0.00000000000E+00  0.11999999989E+02  0.12000000000E+02  0.51109989000E-03 0. -1.
     -623   -1    0    0    0    0  0.00000000000E+00  0.00000000000E+00  0.42561509872E-11  0.25126700000E+02  0.25126700000E+02 0. -1.
      622    2    1    2    0    0 -0.45498487044E-02  0.23874901745E-01  0.75068440434E+01  0.75070688282E+01  0.52765393641E-01 0.  0.
       11    1    1    2    0    0  0.28139450802E-02 -0.24384417476E-01  0.44928640235E+01  0.44929311049E+01  0.51109989000E-03 0. -1.
     -623    1    1    2    0    0  0.17359036243E-02  0.50951573096E-03  0.29192206284E-03  0.25126700067E+02  0.25126700000E+02 0. -1.
     -611    1    3    3    0    0 -0.16839218320E-01 -0.86480054194E-02  0.32866196811E+01  0.32866894097E+01  0.10000000000E-01 0. -1.
      611    1    3    3    0    0  0.12289369615E-01  0.32522907164E-01  0.42202243623E+01  0.42203794185E+01  0.10000000000E-01 0.  1.
</event>
<event>
 7   0  0.6206631E-02  0.9118800E+02  0.7818608E-02  0.1180000E+00
       11   -1    0    0    0    0  0.00000000000E+00  0.00000000000E+00  0.11999999989E+02  0.12000000000E+02  0.51109989000E-03 0. -1.
     -623   -1    0    0    0    0  0.00000000000E+00  0.00000000000E+00  0.42561509872E-11  0.25126700000E+02  0.25126700000E+02 0.  1.
      622    2    1    2    0    0 -0.34715815792E-02  0.10185569672E-01  0.11473082798E+02  0.11473475267E+02  0.94286858623E-01 0.  0.
       11    1    1    2    0    0 -0.12604802106E-01 -0.98885794355E-02  0.52627553830E+00  0.52651958033E+00  0.51109989000E-03 0. -1.
     -623    1    1    2    0    0  0.16076383686E-01 -0.29699023647E-03  0.64165289671E-03  0.25126705153E+02  0.25126700000E+02 0.  1.
     -611    1    3    3    0    0  0.94638656432E-03  0.20848514013E-01  0.70145403265E+00  0.70183567600E+00  0.10000000000E-01 0.  1.
      611    1    3    3    0    0 -0.44179681436E-02 -0.10662944341E-01  0.10771628765E+02  0.10771639591E+02  0.10000000000E-01 0. -1.
</event>
<event>
 7   0  0.6206631E-02  0.9118800E+02  0.7818608E-02  0.1180000E+00
       11   -1    0    0    0    0  0.00000000000E+00  0.00000000000E+00  0.11999999989E+02  0.12000000000E+02  0.51109989000E-03 0. -1.
     -623   -1    0    0    0    0  0.00000000000E+00  0.00000000000E+00  0.42561509872E-11  0.25126700000E+02  0.25126700000E+02 0. -1.
      622    2    1    2    0    0  0.37260354865E-01 -0.29917088389E-01  0.11034060172E+02  0.11034802525E+02  0.11874138385E+00 0.  0.
       11    1    1    2    0    0 -0.40282989051E-01  0.26204634930E-01  0.96399972898E+00  0.96519694405E+00  0.51109989000E-03 0. -1.
     -623    1    1    2    0    0  0.30226341861E-02  0.37124534595E-02  0.19400879663E-02  0.25126700531E+02  0.25126700000E+02 0. -1.
     -611    1    3    3    0    0  0.33052776052E-01 -0.41725123749E-01  0.20141085645E+01  0.20148366638E+01  0.10000000000E-01 0.  1.
      611    1    3    3    0    0  0.42075788136E-02  0.11808035360E-01  0.90199516076E+01  0.90199658612E+01  0.10000000000E-01 0. -1.
</event>
<event>
 6   0  0.6206631E-02  0.9118800E+02  0.7818608E-02  0.1180000E+00
       11   -1    0    0    0    0  0.00000000000E+00  0.00000000000E+00  0.11999999989E+02  0.12000000000E+02  0.51109989000E-03 0. -1.
     -623   -1    0    0    0    0  0.00000000000E+00  0.00000000000E+00  0.42561509872E-11  0.25126700000E+02  0.25126700000E+02 0. -1.
       11    1    1    2    0    0 -0.32986147397E-01 -0.10179812987E-01  0.74649061609E-01  0.82246325965E-01  0.51109989000E-03 0. -1.
     -623    1    1    2    0    0  0.38347753967E-01  0.49387535346E-01  0.94892906108E-02  0.25126779591E+02  0.25126700000E+02 0. -1.
     -611    1    1    2    0    0  0.76108976358E-01  0.81725396620E-02  0.22066819944E+01  0.22080318818E+01  0.10000000000E-01 0.  1.
      611    1    1    2    0    0 -0.81470582928E-01 -0.47380262021E-01  0.97091796425E+01  0.97096422012E+01  0.10000000000E-01 0. -1.
</event>
<event>
 7   0  0.6206631E-02  0.9118800E+02  0.7818608E-02  0.1180000E+00
       11   -1    0    0    0    0  0.00000000000E+00  0.00000000000E+00  0.11999999989E+02  0.12000000000E+02  0.51109989000E-03 0.  1.
     -623   -1    0    0    0    0  0.00000000000E+00  0.00000000000E+00  0.42561509872E-11  0.25126700000E+02  0.25126700000E+02 0. -1.
      622    2    1    2    0    0 -0.35926836506E-03 -0.72592824267E-03  0.11993006380E+02  0.11993688784E+02  0.12793735925E+00 0.  0.
       11    1    1    2    0    0  0.44048420769E-03 -0.24937616479E-03  0.62700589644E-02  0.63111866810E-02  0.51109989000E-03 0.  1.
     -623    1    1    2    0    0 -0.81215842627E-04  0.97530440747E-03  0.72355061454E-03  0.25126700029E+02  0.25126700000E+02 0. -1.
     -611    1    3    3    0    0  0.25212934971E-01  0.49496638658E-01  0.32120012983E+01  0.32124971517E+01  0.10000000000E-01 0. -1.
      611    1    3    3    0    0 -0.25572203336E-01 -0.50222566901E-01  0.87810050812E+01  0.87811916321E+01  0.10000000000E-01 0.  1.
</event>
<event>
 7   0  0.6206631E-02  0.9118800E+02  0.7818608E-02  0.1180000E+00
       11   -1    0    0    0    0  0.00000000000E+00  0.00000000000E+00  0.11999999989E+02  0.12000000000E+02  0.51109989000E-03 0.  1.
     -623   -1    0    0    0    0  0.00000000000E+00  0.00000000000E+00  0.42561509872E-11  0.25126700000E+02  0.25126700000E+02 0.  1.
      622    2    1    2    0    0 -0.76442342810E-01 -0.51408823156E-01  0.84087681358E+01  0.84097236794E+01  0.87089052992E-01 0.  0.
       11    1    1    2    0    0  0.91647101365E-01  0.49593696384E-01  0.35887589350E+01  0.35902715330E+01  0.51109989000E-03 0.  1.
     -623    1    1    2    0    0 -0.15204758555E-01  0.18151267713E-02  0.24729183389E-02  0.25126704788E+02  0.25126700000E+02 0.  1.
     -611    1    3    3    0    0 -0.59143338601E-01 -0.43239138813E-01  0.80302867185E+01  0.80306271448E+01  0.10000000000E-01 0.  1.
      611    1    3    3    0    0 -0.17299004209E-01 -0.81696843425E-02  0.37848141735E+00  0.37909653463E+00  0.10000000000E-01 0.  1.
</event>
<event>
 7   0  0.6206631E-02  0.9118800E+02  0.7818608E-02  0.1180000E+00
       11   -1    0    0    0    0  0.00000000000E+00  0.00000000000E+00  0.11999999989E+02  0.12000000000E+02  0.51109989000E-03 0. -1.
     -623   -1    0    0    0    0  0.00000000000E+00  0.00000000000E+00  0.42561509872E-11  0.25126700000E+02  0.25126700000E+02 0.  1.
      622    2    1    2    0    0  0.38647737135E-02  0.13044464595E-02  0.11993508362E+02  0.11993889506E+02  0.95530137344E-01 0.  0.
       11    1    1    2    0    0 -0.48338210468E-03 -0.51526280916E-02  0.32069734482E-02  0.61097574718E-02  0.51109989000E-03 0. -1.
     -623    1    1    2    0    0 -0.33813916088E-02  0.38481816321E-02  0.32846537184E-02  0.25126700737E+02  0.25126700000E+02 0.  1.
     -611    1    3    3    0    0 -0.79326849062E-02  0.19488682109E-01  0.76257586552E+00  0.76293163972E+00  0.10000000000E-01 0.  1.
      611    1    3    3    0    0  0.11797458620E-01 -0.18184235650E-01  0.11230932496E+02  0.11230957866E+02  0.10000000000E-01 0. -1.
</event>
<event>
 7   0  0.6206631E-02  0.9118800E+02  0.7818608E-02  0.1180000E+00
       11   -1    0    0    0    0  0.00000000000E+00  0.00000000000E+00  0.11999999989E+02  0.12000000000E+02  0.51109989000E-03 0. -1.
     -623   -1    0    0    0    0  0.00000000000E+00  0.00000000000E+00  0.42561509872E-11  0.25126700000E+02  0.25126700000E+02 0. -1.
      622    2    1    2    0    0 -0.26708108703E-02  0.79671980469E-01  0.10335913777E+02  0.10336697170E+02  0.99196878847E-01 0.  0.
       11    1    1    2    0    0  0.19614238682E-01 -0.85874595390E-01  0.16609619751E+01  0.16632961578E+01  0.51109989000E-03 0. -1.
     -623    1    1    2    0    0 -0.16943427812E-01  0.62026149202E-02  0.31242372199E-02  0.25126706672E+02  0.25126700000E+02 0. -1.
     -611    1    3    3    0    0  0.20805517167E-01  0.82230654392E-02  0.61589046438E+00  0.61637776766E+00  0.10000000000E-01 0.  1.
      611    1    3    3    0    0 -0.23476328037E-01  0.71448915030E-01  0.97200233124E+01  0.97203194021E+01  0.10000000000E-01 0. -1.
</event>
<event>
 7   0  0.6206631E-02  0.9118800E+02  0.7818608E-02  0.1180000E+00
       11   -1    0    0    0    0  0.00000000000E+00  0.00000000000E+00  0.11999999989E+02  0.12000000000E+02  0.51109989000E-03 0. -1.
     -623   -1    0    0    0    0  0.00000000000E+00  0.00000000000E+00  0.42561509872E-11  0.25126700000E+02  0.25126700000E+02 0.  1.
      622    2    1    2    0    0 -0.10933430141E-01  0.28763074553E-02  0.11225625397E+02  0.11226035966E+02  0.95342173160E-01 0.  0.
       11    1    1    2    0    0  0.13078068352E-01 -0.76113584067E-02  0.77381538786E+00  0.77396349033E+00  0.51109989000E-03 0. -1.
     -623    1    1    2    0    0 -0.21446382111E-02  0.47350509513E-02  0.55920390431E-03  0.25126700544E+02  0.25126700000E+02 0.  1.
     -611    1    3    3    0    0 -0.41123399455E-01 -0.17320100838E-01  0.87925359304E+01  0.87926548441E+01  0.10000000000E-01 0. -1.
      611    1    3    3    0    0  0.30189969314E-01  0.20196408294E-01  0.24330894670E+01  0.24333811217E+01  0.10000000000E-01 0. -1.
</event>
<event>
 7   0  0.6206631E-02  0.9118800E+02  0.7818608E-02  0.1180000E+00
       11   -1    0    0    0    0  0.00000000000E+00  0.00000000000E+00  0.11999999989E+02  0.12000000000E+02  0.51109989000E-03 0.  1.
     -623   -1    0    0    0    0  0.00000000000E+00  0.00000000000E+00  0.42561509872E-11  0.25126700000E+02  0.25126700000E+02 0.  1.
      622    2    1    2    0    0 -0.19541895588E-01  0.43138185325E-01  0.81849941269E+01  0.81864732812E+01  0.14823338805E+00 0.  0.
       11    1    1    2    0    0  0.29484524308E-02 -0.54401087678E-01  0.38131294269E+01  0.38135186454E+01  0.51109989000E-03 0.  1.
     -623    1    1    2    0    0  0.16593443157E-01  0.11262902353E-01  0.18764353612E-02  0.25126708073E+02  0.25126700000E+02 0.  1.
     -611    1    3    3    0    0  0.33107360797E-02  0.37534787100E-01  0.52829422294E+00  0.52973069309E+00  0.10000000000E-01 0. -1.
      611    1    3    3    0    0 -0.22852631667E-01  0.56033982254E-02  0.76566999040E+01  0.76567425881E+01  0.10000000000E-01 0.  1.
</event>
<event>
 7   0  0.6206631E-02  0.9118800E+02  0.7818608E-02  0.1180000E+00
       11   -1    0    0    0    0  0.00000000000E+00  0.00000000000E+00  0.11999999989E+02  0.12000000000E+02  0.51109989000E-03 0.  1.
     -623   -1    0    0    0    0  0.00000000000E+00  0.00000000000E+00  0.42561509872E-11  0.25126700000E+02  0.25126700000E+02 0. -1.
      622    2    1    2    0    0  0.22929021672E-02 -0.55452184359E-02  0.11804195314E+02  0.11804402758E+02  0.69724136119E-01 0.  0.
       11    1    1    2    0    0 -0.20263595658E-01  0.57130871205E-03  0.19453627215E+00  0.19559029145E+00  0.51109989000E-03 0.  1.
     -623    1    1    2    0    0  0.17970693491E-01  0.49739097238E-02  0.12684030771E-02  0.25126706951E+02  0.25126700000E+02 0. -1.
     -611    1    3    3    0    0  0.31522693969E-01 -0.95550380247E-02  0.82195684685E+01  0.82196405509E+01  0.10000000000E-01 0.  1.
      611    1    3    3    0    0 -0.29229791802E-01  0.40098195889E-02  0.35846268454E+01  0.35847622069E+01  0.10000000000E-01 0. -1.
</event>
<event>
 7   0  0.6206631E-02  0.9118800E+02  0.7818608E-02  0.1180000E+00
       11   -1    0    0    0    0  0.00000000000E+00  0.00000000000E+00  0.11999999989E+02  0.12000000000E+02  0.51109989000E-03 0.  1.
     -623   -1    0    0    0    0  0.00000000000E+00  0.00000000000E+00  0.42561509872E-11  0.25126700000E+02  0.25126700000E+02 0.  1.
      622    2    1    2    0    0  0.11169585366E-01 -0.60367879751E-02  0.11939544573E+02  0.11939982322E+02  0.10144976028E+00 0.  0.
       11    1    1    2    0    0 -0.57271078963E-02  0.88376192180E-02  0.59083526953E-01  0.60016894777E-01  0.51109989000E-03 0.  1.
     -623    1    1    2    0    0 -0.54424774698E-02 -0.28008312430E-02  0.13718896453E-02  0.25126700783E+02  0.25126700000E+02 0.  1.
     -611    1    3    3    0    0  0.33871943442E-01 -0.71045943305E-02  0.15903615764E+01  0.15907695394E+01  0.10000000000E-01 0. -1.
      611    1    3    3    0    0 -0.22702358076E-01  0.10678063555E-02  0.10349182996E+02  0.10349212783E+02  0.10000000000E-01 0.  1.
</event>
<event>
 7   0  0.6206631E-02  0.9118800E+02  0.7818608E-02  0.1180000E+00
       11   -1    0    0    0    0  0.00000000000E+00  0.00000000000E+00  0.11999999989E+02  0.12000000000E+02  0.51109989000E-03 0.  1.
     -623   -1    0    0    0    0  0.00000000000E+00  0.00000000000E+00  0.42561509872E-11  0.25126700000E+02  0.25126700000E+02 0.  1.
      622    2    1    2    0    0  0.12679104966E-02 -0.86444467373E-03  0.11998057748E+02  0.11998580193E+02  0.11195787733E+00 0.  0.
       11    1    1    2    0    0 -0.12067326119E-02 -0.23651090293E-03  0.49224030805E-03  0.14197410498E-02  0.51109989000E-03 0.  1.
     -623    1    1    2    0    0 -0.61177884716E-04  0.11009555767E-02  0.14500007961E-02  0.25126700066E+02  0.25126700000E+02 0.  1.
     -611    1    3    3    0    0 -0.49572541468E-01  0.13028909920E-01  0.39738294182E+01  0.39741725471E+01  0.10000000000E-01 0. -1.
      611    1    3    3    0    0  0.50840451964E-01 -0.13893354594E-01  0.80242283298E+01  0.80244076458E+01  0.10000000000E-01 0.  1.
</event>
<event>
 7   0  0.6206631E-02  0.9118800E+02  0.7818608E-02  0.1180000E+00
       11   -1    0    0    0    0  0.00000000000E+00  0.00000000000E+00  0.11999999989E+02  0.12000000000E+02  0.51109989000E-03 0.  1.
     -623   -1    0    0    0    0  0.00000000000E+00  0.00000000000E+00  0.42561509872E-11  0.25126700000E+02  0.25126700000E+02 0. -1.
      622    2    1    2    0    0  0.33631868709E-02 -0.42303865081E-02  0.11984751260E+02  0.11985342298E+02  0.11890341562E+00 0.  0.
       11    1    1    2    0    0  0.16206324147E-02  0.44622094770E-02  0.13857618547E-01  0.14657168137E-01  0.51109989000E-03 0.  1.
     -623    1    1    2    0    0 -0.49838192855E-02 -0.23182296886E-03  0.13911102714E-02  0.25126700534E+02  0.25126700000E+02 0. -1.
     -611    1    3    3    0    0  0.89544767425E-02 -0.30504462811E-01  0.11226496012E+02  0.11226545480E+02  0.10000000000E-01 0.  1.
      611    1    3    3    0    0 -0.55912898717E-02  0.26274076303E-01  0.75825524833E+00  0.75879681814E+00  0.10000000000E-01 0. -1.
</event>
<event>
 7   0  0.6206631E-02  0.9118800E+02  0.7818608E-02  0.1180000E+00
       11   -1    0    0    0    0  0.00000000000E+00  0.00000000000E+00  0.11999999989E+02  0.12000000000E+02  0.51109989000E-03 0.  1.
     -623   -1    0    0    0    0  0.00000000000E+00  0.00000000000E+00  0.42561509872E-11  0.25126700000E+02  0.25126700000E+02 0.  1.
      622    2    1    2    0    0 -0.10375134731E-01 -0.29578861548E-01  0.53378997895E+01  0.53389487678E+01  0.10108031571E+00 0.  0.
       11    1    1    2    0    0  0.27226235751E-01  0.44170867487E-01  0.66608391947E+01  0.66610413129E+01  0.51109989000E-03 0.  1.
     -623    1    1    2    0    0 -0.16851101019E-01 -0.14592005938E-01  0.12610049100E-02  0.25126709919E+02  0.25126700000E+02 0.  1.
     -611    1    3    3    0    0 -0.42768972530E-01 -0.18760134053E-01  0.45448386417E+01  0.45450895928E+01  0.10000000000E-01 0. -1.
      611    1    3    3    0    0  0.32393837799E-01 -0.10818727496E-01  0.79306114781E+00  0.79385917501E+00  0.10000000000E-01 0.  1.
</event>
<event>
 7   0  0.6206631E-02  0.9118800E+02  0.7818608E-02  0.1180000E+00
       11   -1    0    0    0    0  0.00000000000E+00  0.00000000000E+00  0.11999999989E+02  0.12000000000E+02  0.51109989000E-03 0. -1.
     -623   -1    0    0    0    0  0.00000000000E+00  0.00000000000E+00  0.42561509872E-11  0.25126700000E+02  0.25126700000E+02 0.  1.
      622    2    1    2    0    0  0.17156320453E-02 -0.22835286795E-02  0.11997813025E+02  0.11998492060E+02  0.12761721106E+00 0.  0.
       11    1    1    2    0    0 -0.10800008915E-02 -0.65124591728E-03 -0.64893316902E-03  0.15076009322E-02  0.51109989000E-03 0. -1.
     -623    1    1    2    0    0 -0.63563115384E-03  0.29347745968E-02  0.28358968284E-02  0.25126700339E+02  0.25126700000E+02 0.  1.
     -611    1    3    3    0    0  0.35827623299E-01  0.40022814252E-01  0.90257657974E+01  0.90259311804E+01  0.10000000000E-01 0. -1.
      611    1    3    3    0    0 -0.34111991254E-01 -0.42306342931E-01  0.29720472281E+01  0.29725608792E+01  0.10000000000E-01 0.  1.
</event>
<event>
 7   0  0.6206631E-02  0.9118800E+02  0.7818608E-02  0.1180000E+00
       11   -1    0    0    0    0  0.00000000000E+00  0.00000000000E+00  0.11999999989E+02  0.12000000000E+02  0.51109989000E-03 0. -1.
     -623   -1    0    0    0    0  0.00000000000E+00  0.00000000000E+00  0.42561509872E-11  0.25126700000E+02  0.25126700000E+02 0. -1.
      622    2    1    2    0    0 -0.19355807344E-01  0.10533927673E-01  0.60941560141E+01  0.60947255734E+01  0.80353471109E-01 0.  0.
       11    1    1    2    0    0  0.63378179207E-02  0.10966758561E-01  0.59052482418E+01  0.59052618483E+01  0.51109989000E-03 0. -1.
     -623    1    1    2    0    0  0.13017989424E-01 -0.21500686235E-01  0.59573318523E-03  0.25126712578E+02  0.25126700000E+02 0. -1.
     -611    1    3    3    0    0 -0.34041963215E-02 -0.82901456633E-02  0.17663921591E+00  0.17714888559E+00  0.10000000000E-01 0. -1.
      611    1    3    3    0    0 -0.15951611023E-01  0.18824073336E-01  0.59175167982E+01  0.59175766878E+01  0.10000000000E-01 0. -1.
</event>
<event>
 7   0  0.6206631E-02  0.9118800E+02  0.7818608E-02  0.1180000E+00
       11   -1    0    0    0    0  0.00000000000E+00  0.00000000000E+00  0.11999999989E+02  0.12000000000E+02  0.51109989000E-03 0.  1.
     -623   -1    0    0    0    0  0.00000000000E+00  0.00000000000E+00  0.42561509872E-11  0.25126700000E+02  0.25126700000E+02 0.  1.
      622    2    1    2    0    0  0.81762596140E-02  0.36700316987E-02  0.11962360898E+02  0.11963127283E+02  0.13511410170E+00 0.  0.
       11    1    1    2    0    0 -0.66553932406E-02 -0.64766857633E-02  0.35680158633E-01  0.36872437685E-01  0.51109989000E-03 0.  1.
     -623    1    1    2    0    0 -0.15208663734E-02  0.28066540647E-02  0.19589325461E-02  0.25126700279E+02  0.25126700000E+02 0.  1.
     -611    1    3    3    0    0  0.65363785246E-01  0.58828391888E-02  0.39680033725E+01  0.39685586548E+01  0.10000000000E-01 0. -1.
      611    1    3    3    0    0 -0.57187525632E-01 -0.22128074902E-02  0.79943575254E+01  0.79945686284E+01  0.10000000000E-01 0.  1.
</event>
<event>
 7   0  0.6206631E-02  0.9118800E+02  0.7818608E-02  0.1180000E+00
       11   -1    0    0    0    0  0.00000000000E+00  0.00000000000E+00  0.11999999989E+02  0.12000000000E+02  0.51109989000E-03 0. -1.
     -623   -1    0    0    0    0  0.00000000000E+00  0.00000000000E+00  0.42561509872E-11  0.25126700000E+02  0.25126700000E+02 0.  1.
      622    2    1    2    0    0 -0.21324731823E-01  0.70855273163E-02  0.84278761281E+01  0.84284735461E+01  0.97802546927E-01 0.  0.
       11    1    1    2    0    0  0.20382227868E-01 -0.64217472075E-02  0.35714624490E+01  0.35715264187E+01  0.51109989000E-03 0. -1.
     -623    1    1    2    0    0  0.94250395552E-03 -0.66378010877E-03  0.66141204942E-03  0.25126700035E+02  0.25126700000E+02 0.  1.
     -611    1    3    3    0    0  0.18596158390E-01 -0.89177928672E-03  0.68728113083E+01  0.68728437995E+01  0.10000000000E-01 0. -1.
      611    1    3    3    0    0 -0.39920890213E-01  0.79773066030E-02  0.15550648198E+01  0.15556297467E+01  0.10000000000E-01 0.  1.
</event>
<event>
 7   0  0.6206631E-02  0.9118800E+02  0.7818608E-02  0.1180000E+00
       11   -1    0    0    0    0  0.00000000000E+00  0.00000000000E+00  0.11999999989E+02  0.12000000000E+02  0.51109989000E-03 0.  1.
     -623   -1    0    0    0    0  0.00000000000E+00  0.00000000000E+00  0.42561509872E-11  0.25126700000E+02  0.25126700000E+02 0.  1.
      622    2    1    2    0    0 -0.19745866544E-02  0.32759950417E-02  0.11904262279E+02  0.11904707000E+02  0.10282861971E+00 0.  0.
       11    1    1    2    0    0  0.10215209850E-02 -0.42916948959E-02  0.95189410662E-01  0.95292955015E-01  0.51109989000E-03 0.  1.
     -623    1    1    2    0    0  0.95306566941E-03  0.10156998543E-02  0.54829937608E-03  0.25126700045E+02  0.25126700000E+02 0.  1.
     -611    1    3    3    0    0 -0.13773010562E-01  0.40757444259E-01  0.95012430531E+01  0.95013457162E+01  0.10000000000E-01 0.  1.
      611    1    3    3    0    0  0.11798423907E-01 -0.37481449217E-01  0.24030192261E+01  0.24033612842E+01  0.10000000000E-01 0. -1.
</event>
<event>
 7   0  0.6206631E-02  0.9118800E+02  0.7818608E-02  0.1180000E+00
       11   -1    0    0    0    0  0.00000000000E+00  0.00000000000E+00  0.11999999989E+02  0.12000000000E+02  0.51109989000E-03 0. -1.
     -623   -1    0    0    0    0  0.00000000000E+00  0.00000000000E+00  0.42561509872E-11  0.25126700000E+02  0.25126700000E+02 0.  1.
      622    2    1    2    0    0 -0.22185722485E-02 -0.21417803497E-02  0.11932894136E+02  0.11933165934E+02  0.80481192652E-01 0.  0.
       11    1    1    2    0    0  0.30390366638E-02  0.98553248853E-03  0.66755662823E-01  0.66834023971E-01  0.51109989000E-03 0. -1.
     -623    1    1    2    0    0 -0.82046441528E-03  0.11562478612E-02  0.35019004758E-03  0.25126700042E+02  0.25126700000E+02 0.  1.
     -611    1    3    3    0    0  0.35983053877E-02  0.15001233349E-01  0.11099496581E+02  0.11099511806E+02  0.10000000000E-01 0. -1.
      611    1    3    3    0    0 -0.58168776362E-02 -0.17143013698E-01  0.83339755545E+00  0.83365412757E+00  0.10000000000E-01 0.  1.
</event>
<event>
 7   0  0.6206631E-02  0.9118800E+02  0.7818608E-02  0.1180000E+00
       11   -1    0    0    0    0  0.00000000000E+00  0.00000000000E+00  0.11999999989E+02  0.12000000000E+02  0.51109989000E-03 0. -1.
     -623   -1    0    0    0    0  0.00000000000E+00  0.00000000000E+00  0.42561509872E-11  0.25126700000E+02  0.25126700000E+02 0. -1.
      622    2    1    2    0    0  0.14857259322E-01 -0.25802136015E-01  0.10785899150E+02  0.10786437975E+02  0.10362059593E+00 0.  0.
       11    1    1    2    0    0 -0.11485463867E-01  0.31574370830E-01  0.12130958182E+01  0.12135611160E+01  0.51109989000E-03 0. -1.
     -623    1    1    2    0    0 -0.33717954542E-02 -0.57722348146E-02  0.10050212907E-02  0.25126700909E+02  0.25126700000E+02 0. -1.
     -611    1    3    3    0    0  0.39591158024E-01  0.79823827809E-02  0.86757192651E+01  0.86758190360E+01  0.10000000000E-01 0. -1.
      611    1    3    3    0    0 -0.24733898702E-01 -0.33784518796E-01  0.21101798844E+01  0.21106189386E+01  0.10000000000E-01 0.  1.
</event>
<event>
 7   0  0.6206631E-02  0.9118800E+02  0.7818608E-02  0.1180000E+00
       11   -1    0    0    0    0  0.00000000000E+00  0.00000000000E+00  0.11999999989E+02  0.12000000000E+02  0.51109989000E-03 0.  1.
     -623   -1    0    0    0    0  0.00000000000E+00  0.00000000000E+00  0.42561509872E-11  0.25126700000E+02  0.25126700000E+02 0.  1.
      622    2    1    2    0    0  0.32371148215E-02 -0.52025870887E-03  0.11993117239E+02  0.11993558985E+02  0.10288474012E+00 0.  0.
       11    1    1    2    0    0 -0.38606948368E-03 -0.55022331488E-03  0.63852344247E-02  0.64408258105E-02  0.51109989000E-03 0.  1.
     -623    1    1    2    0    0 -0.28510453378E-02  0.10704820238E-02  0.49751602771E-03  0.25126700189E+02  0.25126700000E+02 0.  1.
     -611    1    3    3    0    0  0.15683945296E-01  0.39422589271E-01  0.27835887297E+01  0.27839300176E+01  0.10000000000E-01 0. -1.
      611    1    3    3    0    0 -0.12446830474E-01 -0.39942847980E-01  0.92095285090E+01  0.92096289671E+01  0.10000000000E-01 0.  1.
</event>
<event>
 7   0  0.6206631E-02  0.9118800E+02  0.7818608E-02  0.1180000E+00
       11   -1    0    0    0    0  0.00000000000E+00  0.00000000000E+00  0.11999999989E+02  0.12000000000E+02  0.51109989000E-03 0. -1.
     -623   -1    0    0    0    0  0.00000000000E+00  0.00000000000E+00  0.42561509872E-11  0.25126700000E+02  0.25126700000E+02 0. -1.
      622    2    1    2    0    0  0.23096484209E-02  0.57462751874E-03  0.11788689357E+02  0.11788897537E+02  0.70019499538E-01 0.  0.
       11    1    1    2    0    0 -0.19336777454E-02  0.33504362528E-03  0.21109270147E+00  0.21110244243E+00  0.51109989000E-03 0. -1.
     -623    1    1    2    0    0 -0.37597067556E-03 -0.90967114402E-03  0.21793085597E-03  0.25126700020E+02  0.25126700000E+02 0. -1.
     -611    1    3    3    0    0 -0.19368113387E-01 -0.63163953377E-02  0.14438475178E+01  0.14440258569E+01  0.10000000000E-01 0.  1.
      611    1    3    3    0    0  0.21677761808E-01  0.68910228565E-02  0.10344841839E+02  0.10344871680E+02  0.10000000000E-01 0. -1.
</event>
<event>
 6   0  0.6206631E-02  0.9118800E+02  0.7818608E-02  0.1180000E+00
       11   -1    0    0    0    0  0.00000000000E+00  0.00000000000E+00  0.11999999989E+02  0.12000000000E+02  0.51109989000E-03 0. -1.
     -623   -1    0    0    0    0  0.00000000000E+00  0.00000000000E+00  0.42561509872E-11  0.25126700000E+02  0.25126700000E+02 0. -1.
       11    1    1    2    0    0 -0.11972640625E+00  0.13192797585E+00  0.30821906759E+01  0.30873352631E+01  0.51109989000E-03 0. -1.
     -623    1    1    2    0    0 -0.10800630444E-01 -0.54850492233E-02  0.94304280200E-02  0.25126704690E+02  0.25126700000E+02 0. -1.
     -611    1    1    2    0    0 -0.31330984613E-01  0.34528549318E-01  0.15928083502E+01  0.15935219772E+01  0.10000000000E-01 0. -1.
      611    1    1    2    0    0  0.16185802131E+00 -0.16097147595E+00  0.73155705350E+01  0.73191380700E+01  0.10000000000E-01 0.  1.
</event>
<event>
 7   0  0.6206631E-02  0.9118800E+02  0.7818608E-02  0.1180000E+00
       11   -1    0    0    0    0  0.00000000000E+00  0.00000000000E+00  0.11999999989E+02  0.12000000000E+02  0.51109989000E-03 0. -1.
     -623   -1    0    0    0    0  0.00000000000E+00  0.00000000000E+00  0.42561509872E-11  0.25126700000E+02  0.25126700000E+02 0. -1.
      622    2    1    2    0    0  0.61936728327E-04 -0.11945970997E-01  0.11103747962E+02  0.11104004620E+02  0.74545958780E-01 0.  0.
       11    1    1    2    0    0  0.90489746533E-03  0.12426039119E-01  0.89590858257E+00  0.89599535425E+00  0.51109989000E-03 0. -1.
     -623    1    1    2    0    0 -0.96683419366E-03 -0.48006812199E-03  0.34344490236E-03  0.25126700026E+02  0.25126700000E+02 0. -1.
     -611    1    3    3    0    0  0.35129639481E-01  0.58951308368E-03  0.48278764515E+01  0.48280146510E+01  0.10000000000E-01 0. -1.
      611    1    3    3    0    0 -0.35067702752E-01 -0.12535484081E-01  0.62758715101E+01  0.62759899692E+01  0.10000000000E-01 0.  1.
</event>
<event>
 7   0  0.6206631E-02  0.9118800E+02  0.7818608E-02  0.1180000E+00
       11   -1    0    0    0    0  0.00000000000E+00  0.00000000000E+00  0.11999999989E+02  0.12000000000E+02  0.51109989000E-03 0. -1.
     -623   -1    0    0    0    0  0.00000000000E+00  0.00000000000E+00  0.42561509872E-11  0.25126700000E+02  0.25126700000E+02 0.  1.
      622    2    1    2    0    0  0.11964112286E-01 -0.33299533509E-02  0.11765465101E+02  0.11765950558E+02  0.10615673539E+00 0.  0.
       11    1    1    2    0    0  0.55079310504E-02  0.24469935951E-01  0.23268589823E+00  0.23403440672E+00  0.51109989000E-03 0. -1.
     -623    1    1    2    0    0 -0.17472043336E-01 -0.21139982600E-01  0.18489898023E-02  0.25126715036E+02  0.25126700000E+02 0.  1.
     -611    1    3    3    0    0  0.32476236952E-01 -0.24986718232E-01  0.10531529881E+02  0.10531614344E+02  0.10000000000E-01 0. -1.
      611    1    3    3    0    0 -0.20512124666E-01  0.21656764881E-01  0.12339352197E+01  0.12343362140E+01  0.10000000000E-01 0.  1.
</event>
<event>
 7   0  0.6206631E-02  0.9118800E+02  0.7818608E-02  0.1180000E+00
       11   -1    0    0    0    0  0.00000000000E+00  0.00000000000E+00  0.11999999989E+02  0.12000000000E+02  0.51109989000E-03 0.  1.
     -623   -1    0    0    0    0  0.00000000000E+00  0.00000000000E+00  0.42561509872E-11  0.25126700000E+02  0.25126700000E+02 0.  1.
      622    2    1    2    0    0 -0.42522554522E-01  0.10212436494E+00  0.55499464388E+01  0.55517030964E+01  0.85230526910E-01 0.  0.
       11    1    1    2    0    0  0.30673962658E-01 -0.87092632790E-01  0.64476283355E+01  0.64482894967E+01  0.51109989000E-03 0.  1.
     -623    1    1    2    0    0  0.11848591863E-01 -0.15031732150E-01  0.24252147403E-02  0.25126707407E+02  0.25126700000E+02 0.  1.
     -611    1    3    3    0    0 -0.57882370356E-01  0.79758215450E-01  0.50130430498E+01  0.50140215756E+01  0.10000000000E-01 0. -1.
      611    1    3    3    0    0  0.15359815835E-01  0.22366149490E-01  0.53690338906E+00  0.53768152076E+00  0.10000000000E-01 0.  1.
</event>
<event>
 7   0  0.6206631E-02  0.9118800E+02  0.7818608E-02  0.1180000E+00
       11   -1    0    0    0    0  0.00000000000E+00  0.00000000000E+00  0.11999999989E+02  0.12000000000E+02  0.51109989000E-03 0. -1.
     -623   -1    0    0    0    0  0.00000000000E+00  0.00000000000E+00  0.42561509872E-11  0.25126700000E+02  0.25126700000E+02 0.  1.
      622    2    1    2    0    0  0.87402038839E-03  0.85125944110E-03  0.11989724808E+02  0.11989997436E+02  0.80845823038E-01 0.  0.
       11    1    1    2    0    0 -0.15200776886E-03 -0.12413633076E-02  0.99108855583E-02  0.10002547921E-01  0.51109989000E-03 0. -1.
     -623    1    1    2    0    0 -0.72201261954E-03  0.39010386650E-03  0.36429518885E-03  0.25126700016E+02  0.25126700000E+02 0.  1.
     -611    1    3    3    0    0 -0.18815121406E-01 -0.28564738474E-01  0.85846223258E+01  0.85846962922E+01  0.10000000000E-01 0.  1.
      611    1    3    3    0    0  0.19689141795E-01  0.29415997915E-01  0.34051024826E+01  0.34053011438E+01  0.10000000000E-01 0. -1.
</event>
<event>
 7   0  0.6206631E-02  0.9118800E+02  0.7818608E-02  0.1180000E+00
       11   -1    0    0    0    0  0.00000000000E+00  0.00000000000E+00  0.11999999989E+02  0.12000000000E+02  0.51109989000E-03 0.  1.
     -623   -1    0    0    0    0  0.00000000000E+00  0.00000000000E+00  0.42561509872E-11  0.25126700000E+02  0.25126700000E+02 0. -1.
      622    2    1    2    0    0  0.63085223421E-01 -0.73327594286E-02  0.59188231666E+01  0.59211087605E+01  0.15174900796E+00 0.  0.
       11    1    1    2    0    0 -0.67394816551E-01  0.28480692321E-02  0.60785160357E+01  0.60788903288E+01  0.51109989000E-03 0.  1.
     -623    1    1    2    0    0  0.43095931306E-02  0.44846901965E-02  0.26607868593E-02  0.25126700911E+02  0.25126700000E+02 0. -1.
     -611    1    3    3    0    0 -0.18058741279E-01 -0.39220496896E-01  0.40342823461E+01  0.40345257979E+01  0.10000000000E-01 0.  1.
      611    1    3    3    0    0  0.81143964700E-01  0.31887737467E-01  0.18845408205E+01  0.18865829626E+01  0.10000000000E-01 0. -1.
</event>
<event>
 7   0  0.6206631E-02  0.9118800E+02  0.7818608E-02  0.1180000E+00
       11   -1    0    0    0    0  0.00000000000E+00  0.00000000000E+00  0.11999999989E+02  0.12000000000E+02  0.51109989000E-03 0.  1.
     -623   -1    0    0    0    0  0.00000000000E+00  0.00000000000E+00  0.42561509872E-11  0.25126700000E+02  0.25126700000E+02 0. -1.
      622    2    1    2    0    0 -0.11151483368E-01 -0.23756529060E-02  0.11704871792E+02  0.11705159715E+02  0.81303609619E-01 0.  0.
       11    1    1    2    0    0  0.86173271710E-02  0.59161588018E-02  0.29465411614E+00  0.29483990341E+00  0.51109989000E-03 0.  1.
     -623    1    1    2    0    0  0.25341561973E-02 -0.35405058958E-02  0.47408065683E-03  0.25126700382E+02  0.25126700000E+02 0. -1.
     -611    1    3    3    0    0  0.26096639813E-01  0.15682995690E-01  0.27509897382E+01  0.27511763903E+01  0.10000000000E-01 0. -1.
      611    1    3    3    0    0 -0.37248123181E-01 -0.18058648596E-01  0.89538820542E+01  0.89539833246E+01  0.10000000000E-01 0.  1.
</event>
<event>
 7   0  0.6206631E-02  0.9118800E+02  0.7818608E-02  0.1180000E+00
       11   -1    0    0    0    0  0.00000000000E+00  0.00000000000E+00  0.11999999989E+02  0.12000000000E+02  0.51109989000E-03 0. -1.
     -623   -1    0    0    0    0  0.00000000000E+00  0.00000000000E+00  0.42561509872E-11  0.25126700000E+02  0.25126700000E+02 0. -1.
      622    2    1    2    0    0  0.57732702375E-02 -0.17101682067E-02  0.11941637121E+02  0.11942093557E+02  0.10423590363E+00 0.  0.
       11    1    1    2    0    0 -0.61675184691E-02 -0.17765450220E-02  0.57547116879E-01  0.57906185166E-01  0.51109989000E-03 0. -1.
     -623    1    1    2    0    0  0.39424823160E-03  0.34867132287E-02  0.81575100779E-03  0.25126700258E+02  0.25126700000E+02 0. -1.
     -611    1    3    3    0    0 -0.32218695916E-01  0.97424637707E-02  0.16431690600E+01  0.16435441947E+01  0.10000000000E-01 0.  1.
      611    1    3    3    0    0  0.37991966154E-01 -0.11452631977E-01  0.10298468061E+02  0.10298549362E+02  0.10000000000E-01 0. -1.
</event>
<event>
 7   0  0.6206631E-02  0.9118800E+02  0.7818608E-02  0.1180000E+00
       11   -1    0    0    0    0  0.00000000000E+00  0.00000000000E+00  0.11999999989E+02  0.12000000000E+02  0.51109989000E-03 0.  1.
     -623   -1    0    0    0    0  0.00000000000E+00  0.00000000000E+00  0.42561509872E-11  0.25126700000E+02  0.25126700000E+02 0.  1.
      622    2    1    2    0    0 -0.56699416421E-02 -0.62105693238E-02  0.11743480906E+02  0.11743538426E+02  0.35780652214E-01 0.  0.
       11    1    1    2    0    0  0.67130252672E-02  0.53653879116E-02  0.25631700469E+00  0.25646153749E+00  0.51109989000E-03 0.  1.
     -623    1    1    2    0    0 -0.10430836251E-02  0.84518141223E-03  0.20207864668E-03  0.25126700037E+02  0.25126700000E+02 0.  1.
     -611    1    3    3    0    0 -0.12771683096E-01  0.21493269351E-02  0.29779607145E+01  0.29780056670E+01  0.10000000000E-01 0.  1.
      611    1    3    3    0    0  0.71017414543E-02 -0.83598962589E-02  0.87655201914E+01  0.87655327589E+01  0.10000000000E-01 0.  1.
</event>
<event>
 7   0  0.6206631E-02  0.9118800E+02  0.7818608E-02  0.1180000E+00
       11   -1    0    0    0    0  0.00000000000E+00  0.00000000000E+00  0.11999999989E+02  0.12000000000E+02  0.51109989000E-03 0. -1.
     -623   -1    0    0    0    0  0.00000000000E+00  0.00000000000E+00  0.42561509872E-11  0.25126700000E+02  0.25126700000E+02 0. -1.
      622    2    1    2    0    0 -0.26063397611E-03 -0.20898809039E-01  0.90868787484E+01  0.90873175641E+01  0.86823352427E-01 0.  0.
       11    1    1    2    0    0  0.13360879202E-01  0.26763032350E-02  0.29126404898E+01  0.29126724085E+01  0.51109989000E-03 0. -1.
     -623    1    1    2    0    0 -0.13100245226E-01  0.18222505804E-01  0.48075093061E-03  0.25126710027E+02  0.25126700000E+02 0. -1.
     -611    1    3    3    0    0  0.67654532438E-02 -0.36969530209E-01  0.18412466211E+01  0.18416573073E+01  0.10000000000E-01 0.  1.
      611    1    3    3    0    0 -0.70260872199E-02  0.16070721170E-01  0.72456321273E+01  0.72456602569E+01  0.10000000000E-01 0. -1.
</event>
<event>
 7   0  0.6206631E-02  0.9118800E+02  0.7818608E-02  0.1180000E+00
       11   -1    0    0    0    0  0.00000000000E+00  0.00000000000E+00  0.11999999989E+02  0.12000000000E+02  0.51109989000E-03 0. -1.
     -623   -1    0    0    0    0  0.00000000000E+00  0.00000000000E+00  0.42561509872E-11  0.25126700000E+02  0.25126700000E+02 0.  1.
      622    2    1    2    0    0  0.46452321410E-02  0.27423838381E-01  0.11260784828E+02  0.11261409585E+02  0.11531369741E+00 0.  0.
       11    1    1    2    0    0 -0.56299331075E-02 -0.27153241335E-01  0.73806942470E+00  0.73859036790E+00  0.51109989000E-03 0. -1.
     -623    1    1    2    0    0  0.98470096653E-03 -0.27059704624E-03  0.11457359895E-02  0.25126700047E+02  0.25126700000E+02 0.  1.
     -611    1    3    3    0    0  0.12833678247E-01  0.44988463004E-01  0.19090528480E+01  0.19096521782E+01  0.10000000000E-01 0.  1.
      611    1    3    3    0    0 -0.81884461061E-02 -0.17564624622E-01  0.93517319805E+01  0.93517574071E+01  0.10000000000E-01 0. -1.
</event>
<event>
 7   0  0.6206631E-02  0.9118800E+02  0.7818608E-02  0.1180000E+00
       11   -1    0    0    0    0  0.00000000000E+00  0.00000000000E+00  0.11999999989E+02  0.12000000000E+02  0.51109989000E-03 0.  1.
     -623   -1    0    0    0    0  0.00000000000E+00  0.00000000000E+00  0.42561509872E-11  0.25126700000E+02  0.25126700000E+02 0.  1.
      622    2    1    2    0    0 -0.17162382477E-02 -0.21432326272E-02  0.11998225395E+02  0.11998773965E+02  0.11470181963E+00 0.  0.
       11    1    1    2    0    0 -0.54984433445E-03 -0.70286967790E-03 -0.66681850301E-03  0.12256527450E-02  0.51109989000E-03 0.  1.
     -623    1    1    2    0    0  0.22660825822E-02  0.28461023051E-02  0.24414128676E-02  0.25126700382E+02  0.25126700000E+02 0.  1.
     -611    1    3    3    0    0 -0.39691963966E-01 -0.36587546931E-01  0.39828891010E+01  0.39832674643E+01  0.10000000000E-01 0. -1.
      611    1    3    3    0    0  0.37975725718E-01  0.34444314304E-01  0.80153362937E+01  0.80155065010E+01  0.10000000000E-01 0.  1.
</event>
<event>
 7   0  0.6206631E-02  0.9118800E+02  0.7818608E-02  0.1180000E+00
       11   -1    0    0    0    0  0.00000000000E+00  0.00000000000E+00  0.11999999989E+02  0.12000000000E+02  0.51109989000E-03 0. -1.
     -623   -1    0    0    0    0  0.00000000000E+00  0.00000000000E+00  0.42561509872E-11  0.25126700000E+02  0.25126700000E+02 0.  1.
      622    2    1    2    0    0 -0.31867172687E-01 -0.16722667718E-02  0.11164165681E+02  0.11164648656E+02  0.98822868995E-01 0.  0.
       11    1    1    2    0    0  0.36284859492E-01 -0.24487762724E-01  0.83418935165E+00  0.83533728349E+00  0.51109989000E-03 0. -1.
     -623    1    1    2    0    0 -0.44176868052E-02  0.26160029496E-01  0.16449566792E-02  0.25126714060E+02  0.25126700000E+02 0.  1.
     -611    1    3    3    0    0 -0.34273928838E-01  0.17342595377E-01  0.17188299134E+01  0.17192881489E+01  0.10000000000E-01 0.  1.
      611    1    3    3    0    0  0.24067561511E-02 -0.19014862149E-01  0.94453357674E+01  0.94453605075E+01  0.10000000000E-01 0. -1.
</event>
<event>
 7   0  0.6206631E-02  0.9118800E+02  0.7818608E-02  0.1180000E+00
       11   -1    0    0    0    0  0.00000000000E+00  0.00000000000E+00  0.11999999989E+02  0.12000000000E+02  0.51109989000E-03 0. -1.
     -623   -1    0    0    0    0  0.00000000000E+00  0.00000000000E+00  0.42561509872E-11  0.25126700000E+02  0.25126700000E+02 0.  1.
      622    2    1    2    0    0  0.32520279670E-02  0.66747952788E-02  0.11196873737E+02  0.11197352689E+02  0.10329874252E+00 0.  0.
       11    1    1    2    0    0  0.15030338087E-02 -0.55382323065E-02  0.80262615301E+00  0.80264683008E+00  0.51109989000E-03 0. -1.
     -623    1    1    2    0    0 -0.47550617757E-02 -0.11365629724E-02  0.50009877600E-03  0.25126700481E+02  0.25126700000E+02 0.  1.
     -611    1    3    3    0    0  0.45936795678E-01 -0.10550158934E-01  0.34586061669E+01  0.34589417619E+01  0.10000000000E-01 0.  1.
      611    1    3    3    0    0 -0.42684767711E-01  0.17224954213E-01  0.77382675705E+01  0.77384109274E+01  0.10000000000E-01 0. -1.
</event>
<event>
 7   0  0.6206631E-02  0.9118800E+02  0.7818608E-02  0.1180000E+00
       11   -1    0    0    0    0  0.00000000000E+00  0.00000000000E+00  0.11999999989E+02  0.12000000000E+02  0.51109989000E-03 0. -1.
     -623   -1    0    0    0    0  0.00000000000E+00  0.00000000000E+00  0.42561509872E-11  0.25126700000E+02  0.25126700000E+02 0. -1.
      622    2    1    2    0    0  0.42585656240E-02  0.54460314446E-02  0.11975538652E+02  0.11976220778E+02  0.12763353974E+00 0.  0.
       11    1    1    2    0    0 -0.16320770015E-01 -0.14268851405E-01  0.97368402546E-02  0.23770463512E-01  0.51109989000E-03 0. -1.
     -623    1    1    2    0    0  0.12062204391E-01  0.88228199604E-02  0.14724496868E-01  0.25126708759E+02  0.25126700000E+02 0. -1.
     -611    1    3    3    0    0 -0.28234169255E-01  0.39805217945E-01  0.22053626946E+01  0.22059252567E+01  0.10000000000E-01 0.  1.
      611    1    3    3    0    0  0.32492734879E-01 -0.34359186500E-01  0.97701759574E+01  0.97702955211E+01  0.10000000000E-01 0. -1.
</event>
<event>
 7   0  0.6206631E-02  0.9118800E+02  0.7818608E-02  0.1180000E+00
       11   -1    0    0    0    0  0.00000000000E+00  0.00000000000E+00  0.11999999989E+02  0.12000000000E+02  0.51109989000E-03 0. -1.
     -623   -1    0    0    0    0  0.00000000000E+00  0.00000000000E+00  0.42561509872E-11  0.25126700000E+02  0.25126700000E+02 0.  1.
      622    2    1    2    0    0 -0.22176067834E-02 -0.75433481629E-02  0.11890526384E+02  0.11890882643E+02  0.91708926038E-01 0.  0.
       11    1    1    2    0    0  0.53564579544E-02  0.78062447115E-02  0.10870446928E+00  0.10911714788E+00  0.51109989000E-03 0. -1.
     -623    1    1    2    0    0 -0.31388511710E-02 -0.26289654860E-03  0.76913617991E-03  0.25126700209E+02  0.25126700000E+02 0.  1.
     -611    1    3    3    0    0  0.17658717049E-01 -0.23589337461E-01  0.15127799968E+01  0.15130999986E+01  0.10000000000E-01 0.  1.
      611    1    3    3    0    0 -0.19876323833E-01  0.16045989299E-01  0.10377746387E+02  0.10377782644E+02  0.10000000000E-01 0. -1.
</event>
<event>
 7   0  0.6206631E-02  0.9118800E+02  0.7818608E-02  0.1180000E+00
       11   -1    0    0    0    0  0.00000000000E+00  0.00000000000E+00  0.11999999989E+02  0.12000000000E+02  0.51109989000E-03 0. -1.
     -623   -1    0    0    0    0  0.00000000000E+00  0.00000000000E+00  0.42561509872E-11  0.25126700000E+02  0.25126700000E+02 0. -1.
      622    2    1    2    0    0 -0.23772158316E-02 -0.48619065184E-03  0.11968550659E+02  0.11969691816E+02  0.16526164044E+00 0.  0.
       11    1    1    2    0    0 -0.21105358199E-02  0.39726658607E-02  0.29967428189E-01  0.30307497602E-01  0.51109989000E-03 0. -1.
     -623    1    1    2    0    0  0.44877516515E-02 -0.34864752088E-02  0.14819020664E-02  0.25126700686E+02  0.25126700000E+02 0. -1.
     -611    1    3    3    0    0  0.21194585378E-01  0.51970044849E-02  0.11661021449E+02  0.11661046156E+02  0.10000000000E-01 0. -1.
      611    1    3    3    0    0 -0.23571801210E-01 -0.56831951367E-02  0.30752920951E+00  0.30864565965E+00  0.10000000000E-01 0.  1.
</event>
<event>
 7   0  0.6206631E-02  0.9118800E+02  0.7818608E-02  0.1180000E+00
       11   -1    0    0    0    0  0.00000000000E+00  0.00000000000E+00  0.11999999989E+02  0.12000000000E+02  0.51109989000E-03 0. -1.
     -623   -1    0    0    0    0  0.00000000000E+00  0.00000000000E+00  0.42561509872E-11  0.25126700000E+02  0.25126700000E+02 0. -1.
      622    2    1    2    0    0  0.61550256057E-01  0.28732416268E-01  0.10761482649E+02  0.10762182930E+02  0.10226745334E+00 0.  0.
       11    1    1    2    0    0 -0.15841676806E+00  0.12620344512E+00  0.12204537058E+01  0.12371461883E+01  0.51109989000E-03 0. -1.
     -623    1    1    2    0    0  0.96866512004E-01 -0.15493586139E+00  0.18063634491E-01  0.25127370882E+02  0.25126700000E+02 0. -1.
     -611    1    3    3    0    0  0.74722317871E-01  0.33532965145E-01  0.10362880177E+02  0.10363208647E+02  0.10000000000E-01 0. -1.
      611    1    3    3    0    0 -0.13172061814E-01 -0.48005488779E-02  0.39860247154E+00  0.39897428338E+00  0.10000000000E-01 0.  1.
</event>
<event>
 7   0  0.6206631E-02  0.9118800E+02  0.7818608E-02  0.1180000E+00
       11   -1    0    0    0    0  0.00000000000E+00  0.00000000000E+00  0.11999999989E+02  0.12000000000E+02  0.51109989000E-03 0.  1.
     -623   -1    0    0    0    0  0.00000000000E+00  0.00000000000E+00  0.42561509872E-11  0.25126700000E+02  0.25126700000E+02 0.  1.
      622    2    1    2    0    0 -0.24332360654E-02  0.23992088432E-03  0.11995547968E+02  0.11996199302E+02  0.12498260489E+00 0.  0.
       11    1    1    2    0    0  0.53280630269E-03 -0.22473154652E-02  0.29746071461E-02  0.38005026191E-02  0.51109989000E-03 0.  1.
     -623    1    1    2    0    0  0.19004297627E-02  0.20073945809E-02  0.14774136245E-02  0.25126700195E+02  0.25126700000E+02 0.  1.
     -611    1    3    3    0    0 -0.22546378143E-01 -0.11282608181E-01  0.58971184956E+00  0.59033524537E+00  0.10000000000E-01 0. -1.
      611    1    3    3    0    0  0.20113142078E-01  0.11522529065E-01  0.11405836119E+02  0.11405864057E+02  0.10000000000E-01 0.  1.
</event>
<event>
 7   0  0.6206631E-02  0.9118800E+02  0.7818608E-02  0.1180000E+00
       11   -1    0    0    0    0  0.00000000000E+00  0.00000000000E+00  0.11999999989E+02  0.12000000000E+02  0.51109989000E-03 0.  1.
     -623   -1    0    0    0    0  0.00000000000E+00  0.00000000000E+00  0.42561509872E-11  0.25126700000E+02  0.25126700000E+02 0. -1.
      622    2    1    2    0    0 -0.13130817644E-01  0.15826957447E-02  0.11921260359E+02  0.11921669339E+02  0.97858911583E-01 0.  0.
       11    1    1    2    0    0  0.10942280318E-01  0.66973035959E-02  0.77269712287E-01  0.78329158262E-01  0.51109989000E-03 0.  1.
     -623    1    1    2    0    0  0.21885373262E-02 -0.82799993406E-02  0.14699180110E-02  0.25126701503E+02  0.25126700000E+02 0. -1.
     -611    1    3    3    0    0  0.84649061756E-02  0.24029320078E-01  0.10487863091E+02  0.10487898802E+02  0.10000000000E-01 0.  1.
      611    1    3    3    0    0 -0.21595723820E-01 -0.22446624334E-01  0.14333972673E+01  0.14337705368E+01  0.10000000000E-01 0. -1.
</event>
<event>
 7   0  0.6206631E-02  0.9118800E+02  0.7818608E-02  0.1180000E+00
       11   -1    0    0    0    0  0.00000000000E+00  0.00000000000E+00  0.11999999989E+02  0.12000000000E+02  0.51109989000E-03 0. -1.
     -623   -1    0    0    0    0  0.00000000000E+00  0.00000000000E+00  0.42561509872E-11  0.25126700000E+02  0.25126700000E+02 0.  1.
      622    2    1    2    0    0  0.28740461224E-02  0.16557316734E-03  0.11977238672E+02  0.11977321763E+02  0.44520894169E-01 0.  0.
       11    1    1    2    0    0 -0.33070946740E-02 -0.27474227895E-02  0.22260943481E-01  0.22678095930E-01  0.51109989000E-03 0. -1.
     -623    1    1    2    0    0  0.43304855157E-03  0.25818496222E-02  0.50037347816E-03  0.25126700141E+02  0.25126700000E+02 0.  1.
     -611    1    3    3    0    0 -0.16984543718E-01  0.14525090675E-02  0.36678774813E+01  0.36679307249E+01  0.10000000000E-01 0. -1.
      611    1    3    3    0    0  0.19858589841E-01 -0.12869359002E-02  0.83093611908E+01  0.83093910378E+01  0.10000000000E-01 0. -1.
</event>
<event>
 7   0  0.6206631E-02  0.9118800E+02  0.7818608E-02  0.1180000E+00
       11   -1    0    0    0    0  0.00000000000E+00  0.00000000000E+00  0.11999999989E+02  0.12000000000E+02  0.51109989000E-03 0. -1.
     -623   -1    0    0    0    0  0.00000000000E+00  0.00000000000E+00  0.42561509872E-11  0.25126700000E+02  0.25126700000E+02 0.  1.
      622    2    1    2    0    0  0.82590937698E-03  0.72775912185E-03  0.11989094518E+02  0.11989453089E+02  0.92718917185E-01 0.  0.
       11    1    1    2    0    0  0.25962037404E-02 -0.24325679289E-02  0.99152356082E-02  0.10546600443E-01  0.51109989000E-03 0. -1.
     -623    1    1    2    0    0 -0.34221131174E-02  0.17048088070E-02  0.99023523673E-03  0.25126700310E+02  0.25126700000E+02 0.  1.
     -611    1    3    3    0    0 -0.28334728829E-01  0.14501843775E-01  0.10111200513E+02  0.10111255559E+02  0.10000000000E-01 0. -1.
      611    1    3    3    0    0  0.29160638206E-01 -0.13774084653E-01  0.18778940049E+01  0.18781975301E+01  0.10000000000E-01 0.  1.
</event>
<event>
 7   0  0.6206631E-02  0.9118800E+02  0.7818608E-02  0.1180000E+00
       11   -1    0    0    0    0  0.00000000000E+00  0.00000000000E+00  0.11999999989E+02  0.12000000000E+02  0.51109989000E-03 0. -1.
     -623   -1    0    0    0    0  0.00000000000E+00  0.00000000000E+00  0.42561509872E-11  0.25126700000E+02  0.25126700000E+02 0.  1.
      622    2    1    2    0    0 -0.95096237620E-01  0.10871435827E-02  0.11112671311E+02  0.11113780659E+02  0.12494958522E+00 0.  0.
       11    1    1    2    0    0  0.96133334828E-01  0.29261751217E-02  0.88098368432E+00  0.88621819764E+00  0.51109989000E-03 0. -1.
     -623    1    1    2    0    0 -0.10370972086E-02 -0.40133187045E-02  0.63449937007E-02  0.25126701143E+02  0.25126700000E+02 0.  1.
     -611    1    3    3    0    0  0.61203416408E-03 -0.44215897246E-01  0.21478135037E+01  0.21482919417E+01  0.10000000000E-01 0.  1.
      611    1    3    3    0    0 -0.95708271784E-01  0.45303040829E-01  0.89648578074E+01  0.89654887176E+01  0.10000000000E-01 0. -1.
</event>
<event>
 7   0  0.6206631E-02  0.9118800E+02  0.7818608E-02  0.1180000E+00
       11   -1    0    0    0    0  0.00000000000E+00  0.00000000000E+00  0.11999999989E+02  0.12000000000E+02  0.51109989000E-03 0. -1.
     -623   -1    0    0    0    0  0.00000000000E+00  0.00000000000E+00  0.42561509872E-11  0.25126700000E+02  0.25126700000E+02 0. -1.
      622    2    1    2    0    0 -0.34804993317E-01 -0.18555534744E-01  0.11335664589E+02  0.11335971199E+02  0.73455165234E-01 0.  0.
       11    1    1    2    0    0  0.39427321630E-01  0.11752788254E-01  0.66275145558E+00  0.66402740517E+00  0.51109989000E-03 0. -1.
     -623    1    1    2    0    0 -0.46223283130E-02  0.68027464903E-02  0.15839449660E-02  0.25126701396E+02  0.25126700000E+02 0. -1.
     -611    1    3    3    0    0 -0.13380859358E-01 -0.13162093058E-01  0.81136965356E+00  0.81164832459E+00  0.10000000000E-01 0.  1.
      611    1    3    3    0    0 -0.21424133959E-01 -0.53934416870E-02  0.10524294935E+02  0.10524322874E+02  0.10000000000E-01 0. -1.
</event>
<event>
 7   0  0.6206631E-02  0.9118800E+02  0.7818608E-02  0.1180000E+00
       11   -1    0    0    0    0  0.00000000000E+00  0.00000000000E+00  0.11999999989E+02  0.12000000000E+02  0.51109989000E-03 0. -1.
     -623   -1    0    0    0    0  0.00000000000E+00  0.00000000000E+00  0.42561509872E-11  0.25126700000E+02  0.25126700000E+02 0. -1.
      622    2    1    2    0    0 -0.14578948548E-01  0.27720519004E-02  0.11947245098E+02  0.11947856756E+02  0.11998075546E+00 0.  0.
       11    1    1    2    0    0 -0.16856672767E-02 -0.10572324024E-01  0.51023129941E-01  0.52136709923E-01  0.51109989000E-03 0. -1.
     -623    1    1    2    0    0  0.16264615825E-01  0.78002721232E-02  0.17317608281E-02  0.25126706535E+02  0.25126700000E+02 0. -1.
     -611    1    3    3    0    0 -0.15745735912E-01 -0.27875831948E-01  0.99680075411E+00  0.99736489491E+00  0.10000000000E-01 0.  1.
      611    1    3    3    0    0  0.11667873637E-02  0.30647883849E-01  0.10950444344E+02  0.10950491861E+02  0.10000000000E-01 0. -1.
</event>
<event>
 7   0  0.6206631E-02  0.9118800E+02  0.7818608E-02  0.1180000E+00
       11   -1    0    0    0    0  0.00000000000E+00  0.00000000000E+00  0.11999999989E+02  0.12000000000E+02  0.51109989000E-03 0. -1.
     -623   -1    0    0    0    0  0.00000000000E+00  0.00000000000E+00  0.42561509872E-11  0.25126700000E+02  0.25126700000E+02 0. -1.
      622    2    1    2    0    0  0.60877918055E-01  0.57434282962E-01  0.91046792067E+01  0.91057663428E+01  0.11310356334E+00 0.  0.
       11    1    1    2    0    0 -0.60625618682E-01 -0.42603820088E-01  0.28932804615E+01  0.28942291964E+01  0.51109989000E-03 0. -1.
     -623    1    1    2    0    0 -0.25229937346E-03 -0.14830462874E-01  0.20403209460E-02  0.25126704461E+02  0.25126700000E+02 0. -1.
     -611    1    3    3    0    0  0.21415206504E-01  0.62305087857E-01  0.23037796280E+01  0.23047431765E+01  0.10000000000E-01 0.  1.
      611    1    3    3    0    0  0.39462711552E-01 -0.48708048955E-02  0.68008995787E+01  0.68010231664E+01  0.10000000000E-01 0. -1.
</event>
<event>
 7   0  0.6206631E-02  0.9118800E+02  0.7818608E-02  0.1180000E+00
       11   -1    0    0    0    0  0.00000000000E+00  0.00000000000E+00  0.11999999989E+02  0.12000000000E+02  0.51109989000E-03 0.  1.
     -623   -1    0    0    0    0  0.00000000000E+00  0.00000000000E+00  0.42561509872E-11  0.25126700000E+02  0.25126700000E+02 0. -1.
      622    2    1    2    0    0 -0.44331537986E-02  0.72257117949E-02  0.93743636275E+01  0.93749445937E+01  0.10402331593E+00 0.  0.
       11    1    1    2    0    0  0.44266613047E-02 -0.67923679955E-02  0.26250428258E+01  0.26250553956E+01  0.51109989000E-03 0.  1.
     -623    1    1    2    0    0  0.64924939188E-05 -0.43334379932E-03  0.59353587528E-03  0.25126700011E+02  0.25126700000E+02 0. -1.
     -611    1    3    3    0    0  0.59105271688E-02 -0.16836670125E-01  0.38914474659E+00  0.38968197493E+00  0.10000000000E-01 0. -1.
      611    1    3    3    0    0 -0.10343680967E-01  0.24062381920E-01  0.89852188809E+01  0.89852626187E+01  0.10000000000E-01 0.  1.
</event>
<event>
 7   0  0.6206631E-02  0.9118800E+02  0.7818608E-02  0.1180000E+00
       11   -1    0    0    0    0  0.00000000000E+00  0.00000000000E+00  0.11999999989E+02  0.12000000000E+02  0.51109989000E-03 0.  1.
     -623   -1    0    0    0    0  0.00000000000E+00  0.00000000000E+00  0.42561509872E-11  0.25126700000E+02  0.25126700000E+02 0. -1.
      622    2    1    2    0    0  0.30859630550E-01  0.20427403151E-01  0.11909864581E+02  0.11910413732E+02  0.10821884801E+00 0.  0.
       11    1    1    2    0    0  0.87481350269E-02  0.28194285000E-01  0.84497701030E-01  0.89507375537E-01  0.51109989000E-03 0.  1.
     -623    1    1    2    0    0 -0.39607765577E-01 -0.48621688150E-01  0.56377065934E-02  0.25126778893E+02  0.25126700000E+02 0. -1.
     -611    1    3    3    0    0  0.58636720642E-01 -0.21142178841E-01  0.61892266471E+01  0.61895485898E+01  0.10000000000E-01 0.  1.
      611    1    3    3    0    0 -0.27777090092E-01  0.41569581992E-01  0.57206379344E+01  0.57208651421E+01  0.10000000000E-01 0. -1.
</event>
<event>
 7   0  0.6206631E-02  0.9118800E+02  0.7818608E-02  0.1180000E+00
       11   -1    0    0    0    0  0.00000000000E+00  0.00000000000E+00  0.11999999989E+02  0.12000000000E+02  0.51109989000E-03 0.  1.
     -623   -1    0    0    0    0  0.00000000000E+00  0.00000000000E+00  0.42561509872E-11  0.25126700000E+02  0.25126700000E+02 0. -1.
      622    2    1    2    0    0  0.34666568922E-01 -0.46304064144E-03  0.10885484214E+02  0.10885834348E+02  0.80130534019E-01 0.  0.
       11    1    1    2    0    0 -0.33355352772E-01  0.71533944419E-02  0.11136422193E+01  0.11141647115E+01  0.51109989000E-03 0.  1.
     -623    1    1    2    0    0 -0.13112161498E-02 -0.66903538005E-02  0.87355587510E-03  0.25126700940E+02  0.25126700000E+02 0. -1.
     -611    1    3    3    0    0  0.24770279953E-02  0.10442418838E-01  0.37027375201E+00  0.37056420659E+00  0.10000000000E-01 0.  1.
      611    1    3    3    0    0  0.32189540927E-01 -0.10905459480E-01  0.10515210462E+02  0.10515270142E+02  0.10000000000E-01 0.  1.
</event>
<event>
 7   0  0.6206631E-02  0.9118800E+02  0.7818608E-02  0.1180000E+00
       11   -1    0    0    0    0  0.00000000000E+00  0.00000000000E+00  0.11999999989E+02  0.12000000000E+02  0.51109989000E-03 0. -1.
     -623   -1    0    0    0    0  0.00000000000E+00  0.00000000000E+00  0.42561509872E-11  0.25126700000E+02  0.25126700000E+02 0.  1.
      622    2    1    2    0    0 -0.77035273316E-02 -0.34656180535E-01  0.87733145897E+01  0.87737789517E+01  0.82992823829E-01 0.  0.
       11    1    1    2    0    0 -0.27042491657E-01  0.74923052488E-01  0.32251811954E+01  0.32261647145E+01  0.51109989000E-03 0. -1.
     -623    1    1    2    0    0  0.34746018989E-01 -0.40266871953E-01  0.15042039908E-02  0.25126756334E+02  0.25126700000E+02 0.  1.
     -611    1    3    3    0    0 -0.28686132659E-01 -0.52654961937E-01  0.57382164721E+01  0.57385384655E+01  0.10000000000E-01 0. -1.
      611    1    3    3    0    0  0.20982605328E-01  0.17998781401E-01  0.30350981176E+01  0.30352404862E+01  0.10000000000E-01 0.  1.
</event>
<event>
 7   0  0.6206631E-02  0.9118800E+02  0.7818608E-02  0.1180000E+00
       11   -1    0    0    0    0  0.00000000000E+00  0.00000000000E+00  0.11999999989E+02  0.12000000000E+02  0.51109989000E-03 0. -1.
     -623   -1    0    0    0    0  0.00000000000E+00  0.00000000000E+00  0.42561509872E-11  0.25126700000E+02  0.25126700000E+02 0.  1.
      622    2    1    2    0    0 -0.19600693153E-02  0.18632926186E-02  0.11985806027E+02  0.11986111064E+02  0.85469401336E-01 0.  0.
       11    1    1    2    0    0  0.39342284463E-02 -0.15701980943E-02  0.13217220042E-01  0.13888837399E-01  0.51109989000E-03 0. -1.
     -623    1    1    2    0    0 -0.19741591310E-02 -0.29309452433E-03  0.97674216670E-03  0.25126700098E+02  0.25126700000E+02 0.  1.
     -611    1    3    3    0    0  0.10157145332E-01  0.18900007628E-01  0.99840580099E+00  0.99868639789E+00  0.10000000000E-01 0.  1.
      611    1    3    3    0    0 -0.12117214647E-01 -0.17036715010E-01  0.10987400226E+02  0.10987424666E+02  0.10000000000E-01 0. -1.
</event>
<event>
 7   0  0.6206631E-02  0.9118800E+02  0.7818608E-02  0.1180000E+00
       11   -1    0    0    0    0  0.00000000000E+00  0.00000000000E+00  0.11999999989E+02  0.12000000000E+02  0.51109989000E-03 0.  1.
     -623   -1    0    0    0    0  0.00000000000E+00  0.00000000000E+00  0.42561509872E-11  0.25126700000E+02  0.25126700000E+02 0. -1.
      622    2    1    2    0    0 -0.10918964746E-02  0.13424829044E-02  0.11997551952E+02  0.11997612658E+02  0.38126666871E-01 0.  0.
       11    1    1    2    0    0  0.89689406190E-03  0.42710956527E-03  0.21097456967E-02  0.23872770221E-02  0.51109989000E-03 0.  1.
     -623    1    1    2    0    0  0.19500241273E-03 -0.17695924697E-02  0.33829124103E-03  0.25126700065E+02  0.25126700000E+02 0. -1.
     -611    1    3    3    0    0 -0.16676850956E-01  0.20805907417E-02  0.57770565726E+01  0.57770896729E+01  0.10000000000E-01 0.  1.
      611    1    3    3    0    0  0.15584954482E-01 -0.73810783731E-03  0.62204953795E+01  0.62205229846E+01  0.10000000000E-01 0. -1.
</event>
<event>
 7   0  0.6206631E-02  0.9118800E+02  0.7818608E-02  0.1180000E+00
       11   -1    0    0    0    0  0.00000000000E+00  0.00000000000E+00  0.11999999989E+02  0.12000000000E+02  0.51109989000E-03 0. -1.
     -623   -1    0    0    0    0  0.00000000000E+00  0.00000000000E+00  0.42561509872E-11  0.25126700000E+02  0.25126700000E+02 0. -1.
      622    2    1    2    0    0  0.34123001658E-02 -0.40106243557E-01  0.10269243553E+02  0.10270160656E+02  0.13121201641E+00 0.  0.
       11    1    1    2    0    0 -0.72284052561E-02  0.41778753579E-01  0.17293191846E+01  0.17298389572E+01  0.51109989000E-03 0. -1.
     -623    1    1    2    0    0  0.38161050903E-02 -0.16725100221E-02  0.14372511171E-02  0.25126700387E+02  0.25126700000E+02 0. -1.
     -611    1    3    3    0    0 -0.10154864572E-01 -0.85601986306E-01  0.73739845508E+01  0.73744951676E+01  0.10000000000E-01 0. -1.
      611    1    3    3    0    0  0.13567164738E-01  0.45495742750E-01  0.28952590025E+01  0.28956654887E+01  0.10000000000E-01 0.  1.
</event>
<event>
 7   0  0.6206631E-02  0.9118800E+02  0.7818608E-02  0.1180000E+00
       11   -1    0    0    0    0  0.00000000000E+00  0.00000000000E+00  0.11999999989E+02  0.12000000000E+02  0.51109989000E-03 0.  1.
     -623   -1    0    0    0    0  0.00000000000E+00  0.00000000000E+00  0.42561509872E-11  0.25126700000E+02  0.25126700000E+02 0.  1.
      622    2    1    2    0    0 -0.94994005152E-03 -0.21699231721E-01  0.11032094575E+02  0.11032287735E+02  0.61564654394E-01 0.  0.
       11    1    1    2    0    0  0.35664556282E-01  0.16721408036E-01  0.96688561540E+00  0.96768777017E+00  0.51109989000E-03 0.  1.
     -623    1    1    2    0    0 -0.34714616230E-01  0.49778236848E-02  0.10197986510E-02  0.25126724494E+02  0.25126700000E+02 0.  1.
     -611    1    3    3    0    0  0.51154295961E-02 -0.31071461009E-01  0.30474781050E+01  0.30476571992E+01  0.10000000000E-01 0. -1.
      611    1    3    3    0    0 -0.60653696476E-02  0.93722292883E-02  0.79846164700E+01  0.79846305363E+01  0.10000000000E-01 0.  1.
</event>
<event>
 7   0  0.6206631E-02  0.9118800E+02  0.7818608E-02  0.1180000E+00
       11   -1    0    0    0    0  0.00000000000E+00  0.00000000000E+00  0.11999999989E+02  0.12000000000E+02  0.51109989000E-03 0. -1.
     -623   -1    0    0    0    0  0.00000000000E+00  0.00000000000E+00  0.42561509872E-11  0.25126700000E+02  0.25126700000E+02 0. -1.
      622    2    1    2    0    0  0.30993158495E-01 -0.25120262950E-01  0.11006209553E+02  0.11006712629E+02  0.97378581696E-01 0.  0.
       11    1    1    2    0    0 -0.21465385594E-01  0.28536651946E-01  0.99264310506E+00  0.99328530571E+00  0.51109989000E-03 0. -1.
     -623    1    1    2    0    0 -0.95277729008E-02 -0.34163889963E-02  0.11473314857E-02  0.25126702065E+02  0.25126700000E+02 0. -1.
     -611    1    3    3    0    0 -0.40818835679E-02  0.62493295213E-02  0.19639773944E+00  0.19679377010E+00  0.10000000000E-01 0.  1.
      611    1    3    3    0    0  0.35075042062E-01 -0.31369592471E-01  0.10809811813E+02  0.10809918859E+02  0.10000000000E-01 0. -1.
</event>
<event>
 7   0  0.6206631E-02  0.9118800E+02  0.7818608E-02  0.1180000E+00
       11   -1    0    0    0    0  0.00000000000E+00  0.00000000000E+00  0.11999999989E+02  0.12000000000E+02  0.51109989000E-03 0. -1.
     -623   -1    0    0    0    0  0.00000000000E+00  0.00000000000E+00  0.42561509872E-11  0.25126700000E+02  0.25126700000E+02 0. -1.
      622    2    1    2    0    0  0.80254836524E-03 -0.26324427153E-03  0.11987466182E+02  0.11987650016E+02  0.66383239372E-01 0.  0.
       11    1    1    2    0    0  0.17691158637E-03 -0.61751591057E-03  0.12322636675E-01  0.12349948234E-01  0.51109989000E-03 0. -1.
     -623    1    1    2    0    0 -0.97945995161E-03  0.88076018210E-03  0.21117035756E-03  0.25126700035E+02  0.25126700000E+02 0. -1.
     -611    1    3    3    0    0  0.73474406651E-02  0.25446017214E-01  0.91140359148E+01  0.91140798845E+01  0.10000000000E-01 0. -1.
      611    1    3    3    0    0 -0.65448922999E-02 -0.25709261485E-01  0.28734302673E+01  0.28735701319E+01  0.10000000000E-01 0. -1.
</event>
<event>
 7   0  0.6206631E-02  0.9118800E+02  0.7818608E-02  0.1180000E+00
       11   -1    0    0    0    0  0.00000000000E+00  0.00000000000E+00  0.11999999989E+02  0.12000000000E+02  0.51109989000E-03 0.  1.
     -623   -1    0    0    0    0  0.00000000000E+00  0.00000000000E+00  0.42561509872E-11  0.25126700000E+02  0.25126700000E+02 0. -1.
      622    2    1    2    0    0 -0.49641731958E-01  0.47407647320E-01  0.11420437124E+02  0.11421098104E+02  0.10191178535E+00 0.  0.
       11    1    1    2    0    0  0.52927358852E-01 -0.42177121634E-01  0.57493091402E+00  0.57890070999E+00  0.51109989000E-03 0.  1.
     -623    1    1    2    0    0 -0.32856268940E-02 -0.52305256859E-02  0.46319512766E-02  0.25126701186E+02  0.25126700000E+02 0. -1.
     -611    1    3    3    0    0 -0.45999494938E-02  0.53833837823E-01  0.92401871922E+01  0.92403505664E+01  0.10000000000E-01 0.  1.
      611    1    3    3    0    0 -0.45041782464E-01 -0.64261905033E-02  0.21802499316E+01  0.21807475375E+01  0.10000000000E-01 0. -1.
</event>
<event>
 7   0  0.6206631E-02  0.9118800E+02  0.7818608E-02  0.1180000E+00
       11   -1    0    0    0    0  0.00000000000E+00  0.00000000000E+00  0.11999999989E+02  0.12000000000E+02  0.51109989000E-03 0.  1.
     -623   -1    0    0    0    0  0.00000000000E+00  0.00000000000E+00  0.42561509872E-11  0.25126700000E+02  0.25126700000E+02 0. -1.
      622    2    1    2    0    0 -0.22550784531E-01  0.48765884625E-02  0.11243157334E+02  0.11243594531E+02  0.96430396813E-01 0.  0.
       11    1    1    2    0    0  0.25204504436E-01 -0.72018037826E-02  0.75595068631E+00  0.75640520515E+00  0.51109989000E-03 0.  1.
     -623    1    1    2    0    0 -0.26537199044E-02  0.23252153201E-02  0.89196851179E-03  0.25126700264E+02  0.25126700000E+02 0. -1.
     -611    1    3    3    0    0 -0.24202243049E-01  0.88726434153E-02  0.88568318064E+00  0.88611464768E+00  0.10000000000E-01 0. -1.
      611    1    3    3    0    0  0.16514585174E-02 -0.39960549529E-02  0.10357474154E+02  0.10357479884E+02  0.10000000000E-01 0.  1.
</event>
<event>
 7   0  0.6206631E-02  0.9118800E+02  0.7818608E-02  0.1180000E+00
       11   -1    0    0    0    0  0.00000000000E+00  0.00000000000E+00  0.11999999989E+02  0.12000000000E+02  0.51109989000E-03 0. -1.
     -623   -1    0    0    0    0  0.00000000000E+00  0.00000000000E+00  0.42561509872E-11  0.25126700000E+02  0.25126700000E+02 0. -1.
      622    2    1    2    0    0 -0.28380924729E-01 -0.13052723854E-01  0.99117469864E+01  0.99124699315E+01  0.11556802965E+00 0.  0.
       11    1    1    2    0    0 -0.14460307992E-01  0.32979707663E-01  0.20871749320E+01  0.20874856214E+01  0.51109989000E-03 0. -1.
     -623    1    1    2    0    0  0.42841232721E-01 -0.19926983808E-01  0.10780706752E-02  0.25126744447E+02  0.25126700000E+02 0. -1.
     -611    1    3    3    0    0 -0.69833836903E-01 -0.13509459940E-01  0.47041512881E+01  0.47046996303E+01  0.10000000000E-01 0. -1.
      611    1    3    3    0    0  0.41452912174E-01  0.45673608595E-03  0.52075956983E+01  0.52077703012E+01  0.10000000000E-01 0.  1.
</event>
<event>
 7   0  0.6206631E-02  0.9118800E+02  0.7818608E-02  0.1180000E+00
       11   -1    0    0    0    0  0.00000000000E+00  0.00000000000E+00  0.11999999989E+02  0.12000000000E+02  0.51109989000E-03 0. -1.
     -623   -1    0    0    0    0  0.00000000000E+00  0.00000000000E+00  0.42561509872E-11  0.25126700000E+02  0.25126700000E+02 0. -1.
      622    2    1    2    0    0  0.20637166912E-01 -0.21857285794E-02  0.10067101079E+02  0.10067659564E+02  0.10399180442E+00 0.  0.
       11    1    1    2    0    0 -0.21885020655E-01  0.40750790704E-02  0.19322120246E+01  0.19323403245E+01  0.51109989000E-03 0. -1.
     -623    1    1    2    0    0  0.12478537426E-02 -0.18893504910E-02  0.68688559381E-03  0.25126700111E+02  0.25126700000E+02 0. -1.
     -611    1    3    3    0    0 -0.14330206485E-01  0.43476280429E-01  0.38736784888E+01  0.38739618708E+01  0.10000000000E-01 0. -1.
      611    1    3    3    0    0  0.34967373397E-01 -0.45662009009E-01  0.61934225901E+01  0.61936976933E+01  0.10000000000E-01 0.  1.
</event>
<event>
 7   0  0.6206631E-02  0.9118800E+02  0.7818608E-02  0.1180000E+00
       11   -1    0    0    0    0  0.00000000000E+00  0.00000000000E+00  0.11999999989E+02  0.12000000000E+02  0.51109989000E-03 0. -1.
     -623   -1    0    0    0    0  0.00000000000E+00  0.00000000000E+00  0.42561509872E-11  0.25126700000E+02  0.25126700000E+02 0. -1.
      622    2    1    2    0    0  0.90506838857E-02 -0.89121018165E-02  0.11748589885E+02  0.11750137560E+02  0.19028147621E+00 0.  0.
       11    1    1    2    0    0 -0.11807679584E-01 -0.22177645200E-02  0.24957022451E+00  0.24985975659E+00  0.51109989000E-03 0. -1.
     -623    1    1    2    0    0  0.27569956980E-02  0.11129866337E-01  0.18398792719E-02  0.25126702684E+02  0.25126700000E+02 0. -1.
     -611    1    3    3    0    0  0.85169884106E-01  0.40448413242E-01  0.46960361706E+01  0.46969932616E+01  0.10000000000E-01 0.  1.
      611    1    3    3    0    0 -0.76119200220E-01 -0.49360515059E-01  0.70525537147E+01  0.70531442982E+01  0.10000000000E-01 0. -1.
</event>
<event>
 7   0  0.6206631E-02  0.9118800E+02  0.7818608E-02  0.1180000E+00
       11   -1    0    0    0    0  0.00000000000E+00  0.00000000000E+00  0.11999999989E+02  0.12000000000E+02  0.51109989000E-03 0. -1.
     -623   -1    0    0    0    0  0.00000000000E+00  0.00000000000E+00  0.42561509872E-11  0.25126700000E+02  0.25126700000E+02 0. -1.
      622    2    1    2    0    0 -0.15269962329E-02 -0.43675816407E-02  0.11618730223E+02  0.11619472136E+02  0.13122241831E+00 0.  0.
       11    1    1    2    0    0  0.12533299434E-02  0.47525746190E-02  0.38049576054E+00  0.38052784761E+00  0.51109989000E-03 0. -1.
     -623    1    1    2    0    0  0.27366628951E-03 -0.38499297828E-03  0.77400582359E-03  0.25126700016E+02  0.25126700000E+02 0. -1.
     -611    1    3    3    0    0  0.10252306462E-01 -0.61113850802E-01  0.37785574175E+01  0.37790787462E+01  0.10000000000E-01 0.  1.
      611    1    3    3    0    0 -0.11779302695E-01  0.56746269161E-01  0.78401728053E+01  0.78403933899E+01  0.10000000000E-01 0. -1.
</event>
<event>
 7   0  0.6206631E-02  0.9118800E+02  0.7818608E-02  0.1180000E+00
       11   -1    0    0    0    0  0.00000000000E+00  0.00000000000E+00  0.11999999989E+02  0.12000000000E+02  0.51109989000E-03 0. -1.
     -623   -1    0    0    0    0  0.00000000000E+00  0.00000000000E+00  0.42561509872E-11  0.25126700000E+02  0.25126700000E+02 0. -1.
      622    2    1    2    0    0 -0.50587582450E-02 -0.76441162882E-02  0.11959157327E+02  0.11959708736E+02  0.11447730874E+00 0.  0.
       11    1    1    2    0    0  0.54593273340E-02 -0.10314891428E-02  0.39901555768E-01  0.40289745601E-01  0.51109989000E-03 0. -1.
     -623    1    1    2    0    0 -0.40056908901E-03  0.86756054309E-02  0.94110649223E-03  0.25126701519E+02  0.25126700000E+02 0. -1.
     -611    1    3    3    0    0  0.89068691943E-02  0.25131911886E-01  0.82741144513E+00  0.82790134970E+00  0.10000000000E-01 0.  1.
      611    1    3    3    0    0 -0.13965627439E-01 -0.32776028174E-01  0.11131745882E+02  0.11131807386E+02  0.10000000000E-01 0. -1.
</event>
<event>
 7   0  0.6206631E-02  0.9118800E+02  0.7818608E-02  0.1180000E+00
       11   -1    0    0    0    0  0.00000000000E+00  0.00000000000E+00  0.11999999989E+02  0.12000000000E+02  0.51109989000E-03 0.  1.
     -623   -1    0    0    0    0  0.00000000000E+00  0.00000000000E+00  0.42561509872E-11  0.25126700000E+02  0.25126700000E+02 0. -1.
      622    2    1    2    0    0 -0.51464139299E-01  0.17362997892E-01  0.11761996163E+02  0.11762466066E+02  0.90023126637E-01 0.  0.
       11    1    1    2    0    0 -0.29321250348E-01 -0.67622906018E-02  0.23548639883E+00  0.23740170503E+00  0.51109989000E-03 0.  1.
     -623    1    1    2    0    0  0.80785389647E-01 -0.10600707290E-01  0.25174267880E-02  0.25126832229E+02  0.25126700000E+02 0. -1.
     -611    1    3    3    0    0  0.32100056791E-02  0.42261821541E-01  0.42538762896E+01  0.42540991823E+01  0.10000000000E-01 0.  1.
      611    1    3    3    0    0 -0.54674144978E-01 -0.24898823649E-01  0.75081198739E+01  0.75083668833E+01  0.10000000000E-01 0. -1.
</event>
<event>
 7   0  0.6206631E-02  0.9118800E+02  0.7818608E-02  0.1180000E+00
       11   -1    0    0    0    0  0.00000000000E+00  0.00000000000E+00  0.11999999989E+02  0.12000000000E+02  0.51109989000E-03 0.  1.
     -623   -1    0    0    0    0  0.00000000000E+00  0.00000000000E+00  0.42561509872E-11  0.25126700000E+02  0.25126700000E+02 0.  1.
      622    2    1    2    0    0 -0.36586838270E-01 -0.56052135609E-02  0.10772214111E+02  0.10772657945E+02  0.90511516139E-01 0.  0.
       11    1    1    2    0    0  0.27728895969E-01 -0.73375457811E-02  0.12270018263E+01  0.12273371477E+01  0.51109989000E-03 0.  1.
     -623    1    1    2    0    0  0.88579423018E-02  0.12942759342E-01  0.78405168386E-03  0.25126704907E+02  0.25126700000E+02 0.  1.
     -611    1    3    3    0    0  0.12861139962E-01 -0.28339319996E-01  0.65456933190E+01  0.65457749390E+01  0.10000000000E-01 0.  1.
      611    1    3    3    0    0 -0.49447978232E-01  0.22734106435E-01  0.42265207922E+01  0.42268830063E+01  0.10000000000E-01 0. -1.
</event>
<event>
 7   0  0.6206631E-02  0.9118800E+02  0.7818608E-02  0.1180000E+00
       11   -1    0    0    0    0  0.00000000000E+00  0.00000000000E+00  0.11999999989E+02  0.12000000000E+02  0.51109989000E-03 0. -1.
     -623   -1    0    0    0    0  0.00000000000E+00  0.00000000000E+00  0.42561509872E-11  0.25126700000E+02  0.25126700000E+02 0.  1.
      622    2    1    2    0    0  0.13163781070E-01  0.67695230292E-02  0.11951974680E+02  0.11952336212E+02  0.91777277747E-01 0.  0.
       11    1    1    2    0    0 -0.60935939448E-02  0.63943858168E-02  0.46830857379E-01  0.47659316855E-01  0.51109989000E-03 0. -1.
     -623    1    1    2    0    0 -0.70701871251E-02 -0.13163908846E-01  0.11944522814E-02  0.25126704471E+02  0.25126700000E+02 0.  1.
     -611    1    3    3    0    0 -0.19468470681E-01  0.17351791986E-01  0.99720203899E+01  0.99720595046E+01  0.10000000000E-01 0. -1.
      611    1    3    3    0    0  0.32632251751E-01 -0.10582268957E-01  0.19799542896E+01  0.19802767072E+01  0.10000000000E-01 0.  1.
</event>
<event>
 7   0  0.6206631E-02  0.9118800E+02  0.7818608E-02  0.1180000E+00
       11   -1    0    0    0    0  0.00000000000E+00  0.00000000000E+00  0.11999999989E+02  0.12000000000E+02  0.51109989000E-03 0.  1.
     -623   -1    0    0    0    0  0.00000000000E+00  0.00000000000E+00  0.42561509872E-11  0.25126700000E+02  0.25126700000E+02 0.  1.
      622    2    1    2    0    0  0.53403225112E-01 -0.29241021230E-01  0.11334892651E+02  0.11335382373E+02  0.85995412322E-01 0.  0.
       11    1    1    2    0    0 -0.53118866623E-01  0.31290727407E-01  0.66175161016E+00  0.66461731725E+00  0.51109989000E-03 0.  1.
     -623    1    1    2    0    0 -0.28435848912E-03 -0.20497061765E-02  0.33557283965E-02  0.25126700309E+02  0.25126700000E+02 0.  1.
     -611    1    3    3    0    0 -0.61361224345E-02 -0.15419859965E-01  0.71983925998E+01  0.71984186767E+01  0.10000000000E-01 0. -1.
      611    1    3    3    0    0  0.59539347547E-01 -0.13821161265E-01  0.41365000507E+01  0.41369636967E+01  0.10000000000E-01 0.  1.
</event>
<event>
 7   0  0.6206631E-02  0.9118800E+02  0.7818608E-02  0.1180000E+00
       11   -1    0    0    0    0  0.00000000000E+00  0.00000000000E+00  0.11999999989E+02  0.12000000000E+02  0.51109989000E-03 0. -1.
     -623   -1    0    0    0    0  0.00000000000E+00  0.00000000000E+00  0.42561509872E-11  0.25126700000E+02  0.25126700000E+02 0. -1.
      622    2    1    2    0    0 -0.31108521213E-01 -0.26203044679E-01  0.88353438239E+01  0.88360979901E+01  0.10804103143E+00 0.  0.
       11    1    1    2    0    0  0.27143160862E-01  0.27327432833E-01  0.31636671546E+01  0.31639016524E+01  0.51109989000E-03 0. -1.
     -623    1    1    2    0    0  0.39653603507E-02 -0.11243881537E-02  0.98901064122E-03  0.25126700358E+02  0.25126700000E+02 0. -1.
     -611    1    3    3    0    0  0.35319720315E-01  0.88109793694E-02  0.22264908136E+01  0.22268108270E+01  0.10000000000E-01 0. -1.
      611    1    3    3    0    0 -0.66428241528E-01 -0.35014024048E-01  0.66088530103E+01  0.66092871631E+01  0.10000000000E-01 0.  1.
</event>
<event>
 7   0  0.6206631E-02  0.9118800E+02  0.7818608E-02  0.1180000E+00
       11   -1    0    0    0    0  0.00000000000E+00  0.00000000000E+00  0.11999999989E+02  0.12000000000E+02  0.51109989000E-03 0. -1.
     -623   -1    0    0    0    0  0.00000000000E+00  0.00000000000E+00  0.42561509872E-11  0.25126700000E+02  0.25126700000E+02 0.  1.
      622    2    1    2    0    0 -0.15204081397E-01 -0.25990389587E-01  0.72642482931E+01  0.72649901382E+01  0.99356832553E-01 0.  0.
       11    1    1    2    0    0  0.22247927896E-01  0.26381502811E-01  0.47348830667E+01  0.47350088564E+01  0.51109989000E-03 0. -1.
     -623    1    1    2    0    0 -0.70438464987E-02 -0.39111322381E-03  0.86862934565E-03  0.25126701005E+02  0.25126700000E+02 0.  1.
     -611    1    3    3    0    0  0.95260490151E-03  0.37847932291E-02  0.87646154244E-01  0.88301078530E-01  0.10000000000E-01 0. -1.
      611    1    3    3    0    0 -0.16156686299E-01 -0.29775182816E-01  0.71766021389E+01  0.71766890597E+01  0.10000000000E-01 0. -1.
</event>
<event>
 7   0  0.6206631E-02  0.9118800E+02  0.7818608E-02  0.1180000E+00
       11   -1    0    0    0    0  0.00000000000E+00  0.00000000000E+00  0.11999999989E+02  0.12000000000E+02  0.51109989000E-03 0. -1.
     -623   -1    0    0    0    0  0.00000000000E+00  0.00000000000E+00  0.42561509872E-11  0.25126700000E+02  0.25126700000E+02 0. -1.
      622    2    1    2    0    0  0.72907637801E-02 -0.55979377431E-02  0.11966029356E+02  0.11966321761E+02  0.83147190991E-01 0.  0.
       11    1    1    2    0    0 -0.34074126212E-02  0.95607878709E-02  0.32107592878E-01  0.33677557349E-01  0.51109989000E-03 0. -1.
     -623    1    1    2    0    0 -0.38833511589E-02 -0.39628501278E-02  0.18630405978E-02  0.25126700682E+02  0.25126700000E+02 0. -1.
     -611    1    3    3    0    0 -0.22219668808E-01 -0.53890396961E-02  0.12602061247E+01  0.12604531852E+01  0.10000000000E-01 0.  1.
      611    1    3    3    0    0  0.29510432588E-01 -0.20889804695E-03  0.10705823231E+02  0.10705868576E+02  0.10000000000E-01 0. -1.
</event>
<event>
 7   0  0.6206631E-02  0.9118800E+02  0.7818608E-02  0.1180000E+00
       11   -1    0    0    0    0  0.00000000000E+00  0.00000000000E+00  0.11999999989E+02  0.12000000000E+02  0.51109989000E-03 0.  1.
     -623   -1    0    0    0    0  0.00000000000E+00  0.00000000000E+00  0.42561509872E-11  0.25126700000E+02  0.25126700000E+02 0. -1.
      622    2    1    2    0    0 -0.49656854695E-01  0.78117230276E-01  0.47846445276E+01  0.47860755035E+01  0.71605624249E-01 0.  0.
       11    1    1    2    0    0  0.49311935726E-01 -0.74986165721E-01  0.72133659135E+01  0.72139242202E+01  0.51109989000E-03 0.  1.
     -623    1    1    2    0    0  0.34491896949E-03 -0.31310645553E-02  0.19895480363E-02  0.25126700276E+02  0.25126700000E+02 0. -1.
     -611    1    3    3    0    0 -0.10970456662E-01 -0.11425945114E-01  0.88701645929E+00  0.88721423692E+00  0.10000000000E-01 0.  1.
      611    1    3    3    0    0 -0.38686398033E-01  0.89543175390E-01  0.38976280683E+01  0.38988612666E+01  0.10000000000E-01 0. -1.
</event>
<event>
 7   0  0.6206631E-02  0.9118800E+02  0.7818608E-02  0.1180000E+00
       11   -1    0    0    0    0  0.00000000000E+00  0.00000000000E+00  0.11999999989E+02  0.12000000000E+02  0.51109989000E-03 0.  1.
     -623   -1    0    0    0    0  0.00000000000E+00  0.00000000000E+00  0.42561509872E-11  0.25126700000E+02  0.25126700000E+02 0. -1.
      622    2    1    2    0    0 -0.40507850095E-02  0.68437270522E-03  0.11818575374E+02  0.11818619662E+02  0.32093287143E-01 0.  0.
       11    1    1    2    0    0  0.11191961621E-02 -0.79853365722E-02  0.18119906261E+00  0.18137910495E+00  0.51109989000E-03 0.  1.
     -623    1    1    2    0    0  0.29315888473E-02  0.73009638670E-02  0.22555271682E-03  0.25126701233E+02  0.25126700000E+02 0. -1.
     -611    1    3    3    0    0 -0.85439497220E-02  0.39717249117E-02  0.99358784318E+01  0.99358879314E+01  0.10000000000E-01 0.  1.
      611    1    3    3    0    0  0.44931647126E-02 -0.32873522064E-02  0.18826969420E+01  0.18827317309E+01  0.10000000000E-01 0.  1.
</event>
<event>
 7   0  0.6206631E-02  0.9118800E+02  0.7818608E-02  0.1180000E+00
       11   -1    0    0    0    0  0.00000000000E+00  0.00000000000E+00  0.11999999989E+02  0.12000000000E+02  0.51109989000E-03 0.  1.
     -623   -1    0    0    0    0  0.00000000000E+00  0.00000000000E+00  0.42561509872E-11  0.25126700000E+02  0.25126700000E+02 0.  1.
      622    2    1    2    0    0 -0.82325543150E-02  0.76318483193E-02  0.10773318271E+02  0.10773888976E+02  0.11032259586E+00 0.  0.
       11    1    1    2    0    0  0.73685755751E-02 -0.11019895784E-01  0.12260390012E+01  0.12261107730E+01  0.51109989000E-03 0.  1.
     -623    1    1    2    0    0  0.86397873997E-03  0.33880474650E-02  0.64271725394E-03  0.25126700251E+02  0.25126700000E+02 0.  1.
     -611    1    3    3    0    0 -0.51753872647E-01 -0.77853187929E-02  0.79235924634E+01  0.79237716146E+01  0.10000000000E-01 0.  1.
      611    1    3    3    0    0  0.43521318332E-01  0.15417167112E-01  0.28497258073E+01  0.28501173609E+01  0.10000000000E-01 0. -1.
</event>
<event>
 7   0  0.6206631E-02  0.9118800E+02  0.7818608E-02  0.1180000E+00
       11   -1    0    0    0    0  0.00000000000E+00  0.00000000000E+00  0.11999999989E+02  0.12000000000E+02  0.51109989000E-03 0.  1.
     -623   -1    0    0    0    0  0.00000000000E+00  0.00000000000E+00  0.42561509872E-11  0.25126700000E+02  0.25126700000E+02 0. -1.
      622    2    1    2    0    0  0.10850028427E-01  0.78667950374E-02  0.11736981067E+02  0.11737334753E+02  0.90127358271E-01 0.  0.
       11    1    1    2    0    0 -0.10064032613E-01 -0.38091703138E-02  0.26244388726E+00  0.26266490004E+00  0.51109989000E-03 0.  1.
     -623    1    1    2    0    0 -0.78599581349E-03 -0.40576247236E-02  0.57503497346E-03  0.25126700346E+02  0.25126700000E+02 0. -1.
     -611    1    3    3    0    0  0.39898344612E-01  0.28623610190E-01  0.83593127256E+01  0.83594629273E+01  0.10000000000E-01 0.  1.
      611    1    3    3    0    0 -0.29048316185E-01 -0.20756815152E-01  0.33776683412E+01  0.33778718261E+01  0.10000000000E-01 0. -1.
</event>
<event>
 7   0  0.6206631E-02  0.9118800E+02  0.7818608E-02  0.1180000E+00
       11   -1    0    0    0    0  0.00000000000E+00  0.00000000000E+00  0.11999999989E+02  0.12000000000E+02  0.51109989000E-03 0.  1.
     -623   -1    0    0    0    0  0.00000000000E+00  0.00000000000E+00  0.42561509872E-11  0.25126700000E+02  0.25126700000E+02 0. -1.
      622    2    1    2    0    0 -0.12545487623E-01 -0.10637726602E-01  0.11809911795E+02  0.11810308206E+02  0.95355990824E-01 0.  0.
       11    1    1    2    0    0  0.11449955753E-01  0.12662918825E-01  0.18892118540E+00  0.18969166170E+00  0.51109989000E-03 0.  1.
     -623    1    1    2    0    0  0.10955318702E-02 -0.20251922229E-02  0.11670090302E-02  0.25126700133E+02  0.25126700000E+02 0. -1.
     -611    1    3    3    0    0 -0.34393955919E-01  0.18774331841E-01  0.25682501806E+01  0.25685685527E+01  0.10000000000E-01 0. -1.
      611    1    3    3    0    0  0.21848468296E-01 -0.29412058443E-01  0.92416616141E+01  0.92417396530E+01  0.10000000000E-01 0.  1.
</event>
<event>
 7   0  0.6206631E-02  0.9118800E+02  0.7818608E-02  0.1180000E+00
       11   -1    0    0    0    0  0.00000000000E+00  0.00000000000E+00  0.11999999989E+02  0.12000000000E+02  0.51109989000E-03 0.  1.
     -623   -1    0    0    0    0  0.00000000000E+00  0.00000000000E+00  0.42561509872E-11  0.25126700000E+02  0.25126700000E+02 0. -1.
      622    2    1    2    0    0  0.10780352472E+00  0.56853005121E-01  0.66656937404E+01  0.66672434234E+01  0.76209988105E-01 0.  0.
       11    1    1    2    0    0 -0.49491489536E-01 -0.52692823148E-01  0.53321984427E+01  0.53326884809E+01  0.51109989000E-03 0.  1.
     -623    1    1    2    0    0 -0.58312035188E-01 -0.41601819726E-02  0.21078060490E-02  0.25126768096E+02  0.25126700000E+02 0. -1.
     -611    1    3    3    0    0  0.58924107500E-01 -0.92290245969E-02  0.30818410677E+01  0.30824343614E+01  0.10000000000E-01 0.  1.
      611    1    3    3    0    0  0.48879417225E-01  0.66082029718E-01  0.35838526727E+01  0.35848090621E+01  0.10000000000E-01 0. -1.
</event>
<event>
 7   0  0.6206631E-02  0.9118800E+02  0.7818608E-02  0.1180000E+00
       11   -1    0    0    0    0  0.00000000000E+00  0.00000000000E+00  0.11999999989E+02  0.12000000000E+02  0.51109989000E-03 0.  1.
     -623   -1    0    0    0    0  0.00000000000E+00  0.00000000000E+00  0.42561509872E-11  0.25126700000E+02  0.25126700000E+02 0. -1.
      622    2    1    2    0    0  0.30208689178E-01  0.16607331865E-02  0.10026138902E+02  0.10027083582E+02  0.13427045909E+00 0.  0.
       11    1    1    2    0    0 -0.60777958965E-01 -0.79138527429E-02  0.19719446266E+01  0.19728969717E+01  0.51109989000E-03 0.  1.
     -623    1    1    2    0    0  0.30569269787E-01  0.62531195564E-02  0.19164607987E-02  0.25126719447E+02  0.25126700000E+02 0. -1.
     -611    1    3    3    0    0 -0.23432467575E-02 -0.34317474568E-01  0.86165515903E+01  0.86166260502E+01  0.10000000000E-01 0.  1.
      611    1    3    3    0    0  0.32551935935E-01  0.35978207755E-01  0.14095873114E+01  0.14104575316E+01  0.10000000000E-01 0. -1.
</event>
<event>
 7   0  0.6206631E-02  0.9118800E+02  0.7818608E-02  0.1180000E+00
       11   -1    0    0    0    0  0.00000000000E+00  0.00000000000E+00  0.11999999989E+02  0.12000000000E+02  0.51109989000E-03 0. -1.
     -623   -1    0    0    0    0  0.00000000000E+00  0.00000000000E+00  0.42561509872E-11  0.25126700000E+02  0.25126700000E+02 0.  1.
      622    2    1    2    0    0 -0.11128830742E-01 -0.18908418051E-01  0.10501692858E+02  0.10502134890E+02  0.93824240346E-01 0.  0.
       11    1    1    2    0    0  0.98472174619E-02  0.18783760699E-01  0.14977148293E+01  0.14978650702E+01  0.51109989000E-03 0. -1.
     -623    1    1    2    0    0  0.12816132803E-02  0.12465735194E-03  0.59230213623E-03  0.25126700040E+02  0.25126700000E+02 0.  1.
     -611    1    3    3    0    0  0.73422891039E-02  0.12001254308E-02  0.95275196499E+01  0.95275278026E+01  0.10000000000E-01 0. -1.
      611    1    3    3    0    0 -0.18471119846E-01 -0.20108543482E-01  0.97417320774E+00  0.97460708722E+00  0.10000000000E-01 0.  1.
</event>
<event>
 7   0  0.6206631E-02  0.9118800E+02  0.7818608E-02  0.1180000E+00
       11   -1    0    0    0    0  0.00000000000E+00  0.00000000000E+00  0.11999999989E+02  0.12000000000E+02  0.51109989000E-03 0. -1.
     -623   -1    0    0    0    0  0.00000000000E+00  0.00000000000E+00  0.42561509872E-11  0.25126700000E+02  0.25126700000E+02 0.  1.
      622    2    1    2    0    0  0.77468988066E-03 -0.10055399708E-02  0.11991569164E+02  0.11991961194E+02  0.96956983285E-01 0.  0.
       11    1    1    2    0    0  0.21019807522E-02 -0.85065458127E-03  0.76951492911E-02  0.80385621893E-02  0.51109989000E-03 0. -1.
     -623    1    1    2    0    0 -0.28766706328E-02  0.18561945521E-02  0.73567620560E-03  0.25126700244E+02  0.25126700000E+02 0.  1.
     -611    1    3    3    0    0 -0.96278330298E-02 -0.38815831128E-01  0.28051283837E+01  0.28054312704E+01  0.10000000000E-01 0.  1.
      611    1    3    3    0    0  0.10402522910E-01  0.37810291157E-01  0.91864407799E+01  0.91865299234E+01  0.10000000000E-01 0. -1.
</event>
<event>
 7   0  0.6206631E-02  0.9118800E+02  0.7818608E-02  0.1180000E+00
       11   -1    0    0    0    0  0.00000000000E+00  0.00000000000E+00  0.11999999989E+02  0.12000000000E+02  0.51109989000E-03 0.  1.
     -623   -1    0    0    0    0  0.00000000000E+00  0.00000000000E+00  0.42561509872E-11  0.25126700000E+02  0.25126700000E+02 0. -1.
      622    2    1    2    0    0 -0.26300069031E-01  0.88515356172E-02  0.96529294511E+01  0.96532636418E+01  0.75378424541E-01 0.  0.
       11    1    1    2    0    0  0.17272836421E-01  0.10103099887E-01  0.23466422110E+01  0.23467275836E+01  0.51109989000E-03 0.  1.
     -623    1    1    2    0    0  0.90272326097E-02 -0.18954635504E-01  0.42832690501E-03  0.25126708775E+02  0.25126700000E+02 0. -1.
     -611    1    3    3    0    0 -0.51322494821E-01  0.10292106528E-01  0.62486152318E+01  0.62488424721E+01  0.10000000000E-01 0.  1.
      611    1    3    3    0    0  0.25022425790E-01 -0.14405709107E-02  0.34043142193E+01  0.34044211697E+01  0.10000000000E-01 0. -1.
</event>
<event>
 7   0  0.6206631E-02  0.9118800E+02  0.7818608E-02  0.1180000E+00
       11   -1    0    0    0    0  0.00000000000E+00  0.00000000000E+00  0.11999999989E+02  0.12000000000E+02  0.51109989000E-03 0. -1.
     -623   -1    0    0    0    0  0.00000000000E+00  0.00000000000E+00  0.42561509872E-11  0.25126700000E+02  0.25126700000E+02 0. -1.
      622    2    1    2    0    0 -0.81772742795E-02  0.75030098630E-02  0.11964451761E+02  0.11964901089E+02  0.10309682316E+00 0.  0.
       11    1    1    2    0    0 -0.17814152391E-02 -0.14207275200E-01  0.32038004489E-01  0.35095798375E-01  0.51109989000E-03 0. -1.
     -623    1    1    2    0    0  0.99586895187E-02  0.67042653374E-02  0.35102236837E-02  0.25126703113E+02  0.25126700000E+02 0. -1.
     -611    1    3    3    0    0  0.72366592649E-02  0.20707049051E-01  0.68086154189E+00  0.68128818451E+00  0.10000000000E-01 0. -1.
      611    1    3    3    0    0 -0.15413933544E-01 -0.13204039188E-01  0.11283590219E+02  0.11283612904E+02  0.10000000000E-01 0. -1.
</event>
<event>
 7   0  0.6206631E-02  0.9118800E+02  0.7818608E-02  0.1180000E+00
       11   -1    0    0    0    0  0.00000000000E+00  0.00000000000E+00  0.11999999989E+02  0.12000000000E+02  0.51109989000E-03 0.  1.
     -623   -1    0    0    0    0  0.00000000000E+00  0.00000000000E+00  0.42561509872E-11  0.25126700000E+02  0.25126700000E+02 0.  1.
      622    2    1    2    0    0 -0.13756067164E-03 -0.96060887494E-03  0.11986195836E+02  0.11986611403E+02  0.99806625334E-01 0.  0.
       11    1    1    2    0    0 -0.35799666294E-02 -0.23601345456E-02  0.12672529162E-01  0.13388077332E-01  0.51109989000E-03 0.  1.
     -623    1    1    2    0    0  0.37175273011E-02  0.33207434206E-02  0.11316240700E-02  0.25126700520E+02  0.25126700000E+02 0.  1.
     -611    1    3    3    0    0 -0.40619226068E-01  0.26417417446E-01  0.65390765227E+01  0.65392636872E+01  0.10000000000E-01 0.  1.
      611    1    3    3    0    0  0.40481665396E-01 -0.27378026321E-01  0.54471193132E+01  0.54473477155E+01  0.10000000000E-01 0. -1.
</event>
<event>
 7   0  0.6206631E-02  0.9118800E+02  0.7818608E-02  0.1180000E+00
       11   -1    0    0    0    0  0.00000000000E+00  0.00000000000E+00  0.11999999989E+02  0.12000000000E+02  0.51109989000E-03 0. -1.
     -623   -1    0    0    0    0  0.00000000000E+00  0.00000000000E+00  0.42561509872E-11  0.25126700000E+02  0.25126700000E+02 0.  1.
      622    2    1    2    0    0  0.13386039334E-01 -0.73287293217E-02  0.10567544103E+02  0.10567964686E+02  0.93039505884E-01 0.  0.
       11    1    1    2    0    0 -0.15962847504E-01 -0.13620963547E-02  0.14319439627E+01  0.14320336732E+01  0.51109989000E-03 0. -1.
     -623    1    1    2    0    0  0.25768081700E-02  0.86908256764E-02  0.51192349981E-03  0.25126701640E+02  0.25126700000E+02 0.  1.
     -611    1    3    3    0    0  0.24236304250E-01 -0.40750276563E-01  0.36169139835E+01  0.36172385528E+01  0.10000000000E-01 0. -1.
      611    1    3    3    0    0 -0.10850264916E-01  0.33421547242E-01  0.69506301194E+01  0.69507261336E+01  0.10000000000E-01 0.  1.
</event>
<event>
 7   0  0.6206631E-02  0.9118800E+02  0.7818608E-02  0.1180000E+00
       11   -1    0    0    0    0  0.00000000000E+00  0.00000000000E+00  0.11999999989E+02  0.12000000000E+02  0.51109989000E-03 0.  1.
     -623   -1    0    0    0    0  0.00000000000E+00  0.00000000000E+00  0.42561509872E-11  0.25126700000E+02  0.25126700000E+02 0. -1.
      622    2    1    2    0    0  0.11310525376E-02 -0.57190484439E-02  0.11982017090E+02  0.11982089761E+02  0.41321814096E-01 0.  0.
       11    1    1    2    0    0 -0.37020915460E-02  0.37522589423E-02  0.17109135403E-01  0.17910015812E-01  0.51109989000E-03 0.  1.
     -623    1    1    2    0    0  0.25710390084E-02  0.19667895016E-02  0.87376354592E-03  0.25126700224E+02  0.25126700000E+02 0. -1.
     -611    1    3    3    0    0 -0.38406514641E-02 -0.14027231672E-01  0.10298674429E+02  0.10298689552E+02  0.10000000000E-01 0.  1.
      611    1    3    3    0    0  0.49717040017E-02  0.83081832281E-02  0.16833426617E+01  0.16834002081E+01  0.10000000000E-01 0. -1.
</event>
<event>
 7   0  0.6206631E-02  0.9118800E+02  0.7818608E-02  0.1180000E+00
       11   -1    0    0    0    0  0.00000000000E+00  0.00000000000E+00  0.11999999989E+02  0.12000000000E+02  0.51109989000E-03 0. -1.
     -623   -1    0    0    0    0  0.00000000000E+00  0.00000000000E+00  0.42561509872E-11  0.25126700000E+02  0.25126700000E+02 0.  1.
      622    2    1    2    0    0 -0.94521812562E-02 -0.10861712232E-01  0.11504694101E+02  0.11505268163E+02  0.11402556261E+00 0.  0.
       11    1    1    2    0    0  0.16792064375E-01  0.22723448038E-01  0.49392016787E+00  0.49472792721E+00  0.51109989000E-03 0. -1.
     -623    1    1    2    0    0 -0.73398831184E-02 -0.11861735807E-01  0.13857207435E-02  0.25126703910E+02  0.25126700000E+02 0.  1.
     -611    1    3    3    0    0  0.22031366457E-02 -0.26380854099E-01  0.72515325542E+00  0.72570520676E+00  0.10000000000E-01 0.  1.
      611    1    3    3    0    0 -0.11655317902E-01  0.15519141868E-01  0.10779540845E+02  0.10779562956E+02  0.10000000000E-01 0. -1.
</event>
<event>
 7   0  0.6206631E-02  0.9118800E+02  0.7818608E-02  0.1180000E+00
       11   -1    0    0    0    0  0.00000000000E+00  0.00000000000E+00  0.11999999989E+02  0.12000000000E+02  0.51109989000E-03 0.  1.
     -623   -1    0    0    0    0  0.00000000000E+00  0.00000000000E+00  0.42561509872E-11  0.25126700000E+02  0.25126700000E+02 0.  1.
      622    2    1    2    0    0 -0.14234923771E-01  0.61888420123E-02  0.11915536010E+02  0.11915962391E+02  0.99601054507E-01 0.  0.
       11    1    1    2    0    0  0.11149868862E-01  0.43838246273E-01  0.70759590172E-01  0.83983880812E-01  0.51109989000E-03 0.  1.
     -623    1    1    2    0    0  0.30850549092E-02 -0.50027088285E-01  0.13704389439E-01  0.25126753728E+02  0.25126700000E+02 0.  1.
     -611    1    3    3    0    0  0.20682242968E-01 -0.17681737362E-01  0.12434702215E+01  0.12438081004E+01  0.10000000000E-01 0. -1.
      611    1    3    3    0    0 -0.34917166740E-01  0.23870579375E-01  0.10672065788E+02  0.10672154290E+02  0.10000000000E-01 0.  1.
</event>
<event>
 7   0  0.6206631E-02  0.9118800E+02  0.7818608E-02  0.1180000E+00
       11   -1    0    0    0    0  0.00000000000E+00  0.00000000000E+00  0.11999999989E+02  0.12000000000E+02  0.51109989000E-03 0.  1.
     -623   -1    0    0    0    0  0.00000000000E+00  0.00000000000E+00  0.42561509872E-11  0.25126700000E+02  0.25126700000E+02 0. -1.
      622    2    1    2    0    0  0.23459887308E-02  0.31589882605E-02  0.11981797025E+02  0.11982250918E+02  0.10421921155E+00 0.  0.
       11    1    1    2    0    0  0.72821819773E-02 -0.89638165455E-02  0.13464150826E-01  0.17746119632E-01  0.51109989000E-03 0.  1.
     -623    1    1    2    0    0 -0.96281707081E-02  0.58048282851E-02  0.47388135507E-02  0.25126702962E+02  0.25126700000E+02 0. -1.
     -611    1    3    3    0    0  0.45376992243E-01  0.10556788608E-01  0.33636718926E+01  0.33640093814E+01  0.10000000000E-01 0. -1.
      611    1    3    3    0    0 -0.43031003513E-01 -0.73978003475E-02  0.86181251322E+01  0.86182415369E+01  0.10000000000E-01 0.  1.
</event>
<event>
 7   0  0.6206631E-02  0.9118800E+02  0.7818608E-02  0.1180000E+00
       11   -1    0    0    0    0  0.00000000000E+00  0.00000000000E+00  0.11999999989E+02  0.12000000000E+02  0.51109989000E-03 0. -1.
     -623   -1    0    0    0    0  0.00000000000E+00  0.00000000000E+00  0.42561509872E-11  0.25126700000E+02  0.25126700000E+02 0. -1.
      622    2    1    2    0    0 -0.35089735724E-02 -0.44058743260E-02  0.11642651049E+02  0.11643012495E+02  0.91568504592E-01 0.  0.
       11    1    1    2    0    0 -0.79975878818E-03  0.19969648969E-02  0.35698017032E+00  0.35698701756E+00  0.51109989000E-03 0. -1.
     -623    1    1    2    0    0  0.43087323606E-02  0.24089094291E-02  0.36877021616E-03  0.25126700488E+02  0.25126700000E+02 0. -1.
     -611    1    3    3    0    0  0.23884194716E-01 -0.30287330674E-02  0.10345982003E+02  0.10346014848E+02  0.10000000000E-01 0. -1.
      611    1    3    3    0    0 -0.27393168289E-01 -0.13771412586E-02  0.12966690452E+01  0.12969976465E+01  0.10000000000E-01 0.  1.
</event>
<event>
 7   0  0.6206631E-02  0.9118800E+02  0.7818608E-02  0.1180000E+00
       11   -1    0    0    0    0  0.00000000000E+00  0.00000000000E+00  0.11999999989E+02  0.12000000000E+02  0.51109989000E-03 0.  1.
     -623   -1    0    0    0    0  0.00000000000E+00  0.00000000000E+00  0.42561509872E-11  0.25126700000E+02  0.25126700000E+02 0.  1.
      622    2    1    2    0    0 -0.50371596528E-01 -0.43047554732E-01  0.47777852920E+01  0.47795800719E+01  0.11297334474E+00 0.  0.
       11    1    1    2    0    0  0.48423901834E-01  0.47724714062E-01  0.72200992024E+01  0.72204193283E+01  0.51109989000E-03 0.  1.
     -623    1    1    2    0    0  0.19476946936E-02 -0.46771593297E-02  0.21154946647E-02  0.25126700600E+02  0.25126700000E+02 0.  1.
     -611    1    3    3    0    0 -0.67105422601E-01 -0.48731792921E-01  0.20278306088E+01  0.20295504190E+01  0.10000000000E-01 0. -1.
      611    1    3    3    0    0  0.16733826073E-01  0.56842381883E-02  0.27499546833E+01  0.27500296528E+01  0.10000000000E-01 0.  1.
</event>
<event>
 7   0  0.6206631E-02  0.9118800E+02  0.7818608E-02  0.1180000E+00
       11   -1    0    0    0    0  0.00000000000E+00  0.00000000000E+00  0.11999999989E+02  0.12000000000E+02  0.51109989000E-03 0.  1.
     -623   -1    0    0    0    0  0.00000000000E+00  0.00000000000E+00  0.42561509872E-11  0.25126700000E+02  0.25126700000E+02 0.  1.
      622    2    1    2    0    0  0.35606058923E-02  0.79577659624E-03  0.11943255114E+02  0.11943712628E+02  0.10447634615E+00 0.  0.
       11    1    1    2    0    0 -0.19761894760E-02  0.48657247656E-02  0.56038806746E-01  0.56286674151E-01  0.51109989000E-03 0.  1.
     -623    1    1    2    0    0 -0.15844164163E-02 -0.56615013618E-02  0.70606804824E-03  0.25126700698E+02  0.25126700000E+02 0.  1.
     -611    1    3    3    0    0  0.20960744673E-01 -0.12267940900E-01  0.11271873468E+02  0.11271904069E+02  0.10000000000E-01 0.  1.
      611    1    3    3    0    0 -0.17400138780E-01  0.13063717497E-01  0.67138164600E+00  0.67180855913E+00  0.10000000000E-01 0. -1.
</event>
<event>
 7   0  0.6206631E-02  0.9118800E+02  0.7818608E-02  0.1180000E+00
       11   -1    0    0    0    0  0.00000000000E+00  0.00000000000E+00  0.11999999989E+02  0.12000000000E+02  0.51109989000E-03 0. -1.
     -623   -1    0    0    0    0  0.00000000000E+00  0.00000000000E+00  0.42561509872E-11  0.25126700000E+02  0.25126700000E+02 0.  1.
      622    2    1    2    0    0  0.21461957339E-01  0.16864257609E+00  0.91156828552E+01  0.91184078753E+01  0.14417811511E+00 0.  0.
       11    1    1    2    0    0 -0.27270346260E-01 -0.76731984936E-01  0.28802720257E+01  0.28814230291E+01  0.51109989000E-03 0. -1.
     -623    1    1    2    0    0  0.58083889210E-02 -0.91910591159E-01  0.40451081561E-02  0.25126869096E+02  0.25126700000E+02 0.  1.
     -611    1    3    3    0    0 -0.45196379251E-01  0.39695694971E-01  0.13674208791E+01  0.13687798660E+01  0.10000000000E-01 0.  1.
      611    1    3    3    0    0  0.66658336589E-01  0.12894688112E+00  0.77482619761E+01  0.77496280093E+01  0.10000000000E-01 0. -1.
</event>
<event>
 7   0  0.6206631E-02  0.9118800E+02  0.7818608E-02  0.1180000E+00
       11   -1    0    0    0    0  0.00000000000E+00  0.00000000000E+00  0.11999999989E+02  0.12000000000E+02  0.51109989000E-03 0. -1.
     -623   -1    0    0    0    0  0.00000000000E+00  0.00000000000E+00  0.42561509872E-11  0.25126700000E+02  0.25126700000E+02 0. -1.
      622    2    1    2    0    0  0.44548278677E-02  0.14821874466E-02  0.11908483375E+02  0.11908888634E+02  0.98133439816E-01 0.  0.
       11    1    1    2    0    0 -0.50875898862E-02  0.59158050084E-03  0.90965752262E-01  0.91111266296E-01  0.51109989000E-03 0. -1.
     -623    1    1    2    0    0  0.63276201845E-03 -0.20737679474E-02  0.55086215688E-03  0.25126700100E+02  0.25126700000E+02 0. -1.
     -611    1    3    3    0    0  0.11823336100E-01  0.61629578517E-02  0.11684713983E+02  0.11684725869E+02  0.10000000000E-01 0. -1.
      611    1    3    3    0    0 -0.73685082325E-02 -0.46807704051E-02  0.22376939209E+00  0.22416276533E+00  0.10000000000E-01 0.  1.
</event>
<event>
 7   0  0.6206631E-02  0.9118800E+02  0.7818608E-02  0.1180000E+00
       11   -1    0    0    0    0  0.00000000000E+00  0.00000000000E+00  0.11999999989E+02  0.12000000000E+02  0.51109989000E-03 0.  1.
     -623   -1    0    0    0    0  0.00000000000E+00  0.00000000000E+00  0.42561509872E-11  0.25126700000E+02  0.25126700000E+02 0. -1.
      622    2    1    2    0    0  0.59076583681E-02  0.28515133920E-01  0.10476112526E+02  0.10476591349E+02  0.95836459870E-01 0.  0.
       11    1    1    2    0    0  0.28750432998E-01 -0.33547816589E-01  0.15227433044E+01  0.15233842180E+01  0.51109989000E-03 0.  1.
     -623    1    1    2    0    0 -0.34658091366E-01  0.50326826686E-02  0.11441584914E-02  0.25126724433E+02  0.25126700000E+02 0. -1.
     -611    1    3    3    0    0  0.31469331079E-01  0.32542105140E-01  0.94213269275E+01  0.94214409929E+01  0.10000000000E-01 0.  1.
      611    1    3    3    0    0 -0.25561672711E-01 -0.40269712204E-02  0.10547855987E+01  0.10551503566E+01  0.10000000000E-01 0. -1.
</event>
<event>
 7   0  0.6206631E-02  0.9118800E+02  0.7818608E-02  0.1180000E+00
       11   -1    0    0    0    0  0.00000000000E+00  0.00000000000E+00  0.11999999989E+02  0.12000000000E+02  0.51109989000E-03 0. -1.
     -623   -1    0    0    0    0  0.00000000000E+00  0.00000000000E+00  0.42561509872E-11  0.25126700000E+02  0.25126700000E+02 0. -1.
      622    2    1    2    0    0 -0.38431919973E-01  0.52257267604E-01  0.10800443570E+02  0.10800768053E+02  0.52928121227E-01 0.  0.
       11    1    1    2    0    0  0.46893297643E-01 -0.55825952714E-01  0.11970117586E+01  0.11992301405E+01  0.51109989000E-03 0. -1.
     -623    1    1    2    0    0 -0.84613776705E-02  0.35686851096E-02  0.25446606939E-02  0.25126701807E+02  0.25126700000E+02 0. -1.
     -611    1    3    3    0    0 -0.15598448953E-01 -0.66305295365E-02  0.27668814485E+01  0.27669514317E+01  0.10000000000E-01 0.  1.
      611    1    3    3    0    0 -0.22833471020E-01  0.58887797141E-01  0.80335621214E+01  0.80338166209E+01  0.10000000000E-01 0. -1.
</event>
<event>
 7   0  0.6206631E-02  0.9118800E+02  0.7818608E-02  0.1180000E+00
       11   -1    0    0    0    0  0.00000000000E+00  0.00000000000E+00  0.11999999989E+02  0.12000000000E+02  0.51109989000E-03 0.  1.
     -623   -1    0    0    0    0  0.00000000000E+00  0.00000000000E+00  0.42561509872E-11  0.25126700000E+02  0.25126700000E+02 0.  1.
      622    2    1    2    0    0 -0.34195138519E-01  0.14289318644E-01  0.60323237191E+01  0.60326773118E+01  0.53782937527E-01 0.  0.
       11    1    1    2    0    0 -0.45815239134E-02  0.31130439573E-01  0.59671687280E+01  0.59672517111E+01  0.51109989000E-03 0.  1.
     -623    1    1    2    0    0  0.38776662433E-01 -0.45419758217E-01  0.50754201061E-03  0.25126770977E+02  0.25126700000E+02 0.  1.
     -611    1    3    3    0    0 -0.13550435109E-02  0.26906024935E-01  0.26920493640E+01  0.26922027317E+01  0.10000000000E-01 0.  1.
      611    1    3    3    0    0 -0.32840095008E-01 -0.12616706291E-01  0.33402743551E+01  0.33404745802E+01  0.10000000000E-01 0.  1.
</event>
<event>
 7   0  0.6206631E-02  0.9118800E+02  0.7818608E-02  0.1180000E+00
       11   -1    0    0    0    0  0.00000000000E+00  0.00000000000E+00  0.11999999989E+02  0.12000000000E+02  0.51109989000E-03 0.  1.
     -623   -1    0    0    0    0  0.00000000000E+00  0.00000000000E+00  0.42561509872E-11  0.25126700000E+02  0.25126700000E+02 0.  1.
      622    2    1    2    0    0 -0.38934835631E-02  0.16057365812E-02  0.11913343195E+02  0.11913687753E+02  0.90509994810E-01 0.  0.
       11    1    1    2    0    0  0.12410130874E-02  0.88296116214E-03  0.86297028393E-01  0.86311981013E-01  0.51109989000E-03 0.  1.
     -623    1    1    2    0    0  0.26524704758E-02 -0.24886977433E-02  0.35976567675E-03  0.25126700266E+02  0.25126700000E+02 0.  1.
     -611    1    3    3    0    0  0.50715156381E-02  0.28098081496E-01  0.10446822188E+02  0.10446865992E+02  0.10000000000E-01 0.  1.
      611    1    3    3    0    0 -0.89649992013E-02 -0.26492344915E-01  0.14665210067E+01  0.14668217610E+01  0.10000000000E-01 0. -1.
</event>
<event>
 7   0  0.6206631E-02  0.9118800E+02  0.7818608E-02  0.1180000E+00
       11   -1    0    0    0    0  0.00000000000E+00  0.00000000000E+00  0.11999999989E+02  0.12000000000E+02  0.51109989000E-03 0. -1.
     -623   -1    0    0    0    0  0.00000000000E+00  0.00000000000E+00  0.42561509872E-11  0.25126700000E+02  0.25126700000E+02 0.  1.
      622    2    1    2    0    0  0.24785804087E-02 -0.24458989795E-02  0.11815004108E+02  0.11815307775E+02  0.84638162675E-01 0.  0.
       11    1    1    2    0    0 -0.25067401628E-02  0.17254595326E-02  0.18466643195E+00  0.18469221226E+00  0.51109989000E-03 0. -1.
     -623    1    1    2    0    0  0.28159754046E-04  0.72043944694E-03  0.32944886700E-03  0.25126700013E+02  0.25126700000E+02 0.  1.
     -611    1    3    3    0    0  0.32824043155E-01  0.17013271392E-01  0.86127331190E+01  0.86128182756E+01  0.10000000000E-01 0. -1.
      611    1    3    3    0    0 -0.30345462746E-01 -0.19459170372E-01  0.32022709892E+01  0.32024894996E+01  0.10000000000E-01 0. -1.
</event>
<event>
 7   0  0.6206631E-02  0.9118800E+02  0.7818608E-02  0.1180000E+00
       11   -1    0    0    0    0  0.00000000000E+00  0.00000000000E+00  0.11999999989E+02  0.12000000000E+02  0.51109989000E-03 0. -1.
     -623   -1    0    0    0    0  0.00000000000E+00  0.00000000000E+00  0.42561509872E-11  0.25126700000E+02  0.25126700000E+02 0.  1.
      622    2    1    2    0    0  0.19933076657E-02 -0.63057886224E-02  0.11991452143E+02  0.11991900833E+02  0.10352471883E+00 0.  0.
       11    1    1    2    0    0 -0.53525146734E-02 -0.28010381663E-02  0.53671616042E-02  0.80970905261E-02  0.51109989000E-03 0. -1.
     -623    1    1    2    0    0  0.33592070077E-02  0.91068267888E-02  0.31806847684E-02  0.25126702076E+02  0.25126700000E+02 0.  1.
     -611    1    3    3    0    0  0.39056042233E-01  0.18859770297E-01  0.29859784951E+01  0.29863102046E+01  0.10000000000E-01 0.  1.
      611    1    3    3    0    0 -0.37062734567E-01 -0.25165558920E-01  0.90054736477E+01  0.90055906286E+01  0.10000000000E-01 0. -1.
</event>
<event>
 7   0  0.6206631E-02  0.9118800E+02  0.7818608E-02  0.1180000E+00
       11   -1    0    0    0    0  0.00000000000E+00  0.00000000000E+00  0.11999999989E+02  0.12000000000E+02  0.51109989000E-03 0.  1.
     -623   -1    0    0    0    0  0.00000000000E+00  0.00000000000E+00  0.42561509872E-11  0.25126700000E+02  0.25126700000E+02 0.  1.
      622    2    1    2    0    0  0.69145947768E-03 -0.49537513847E-02  0.11750638952E+02  0.11750783037E+02  0.57975786904E-01 0.  0.
       11    1    1    2    0    0  0.28765220321E-01  0.61453515830E-02  0.24745701457E+00  0.24919959576E+00  0.51109989000E-03 0.  1.
     -623    1    1    2    0    0 -0.29456679799E-01 -0.11916001983E-02  0.19040224260E-02  0.25126717367E+02  0.25126700000E+02 0.  1.
     -611    1    3    3    0    0  0.25942714416E-01 -0.50265498091E-02  0.41872926771E+01  0.41873879990E+01  0.10000000000E-01 0. -1.
      611    1    3    3    0    0 -0.25251254938E-01  0.72798424422E-04  0.75633462750E+01  0.75633950384E+01  0.10000000000E-01 0.  1.
</event>
<event>
 7   0  0.6206631E-02  0.9118800E+02  0.7818608E-02  0.1180000E+00
       11   -1    0    0    0    0  0.00000000000E+00  0.00000000000E+00  0.11999999989E+02  0.12000000000E+02  0.51109989000E-03 0. -1.
     -623   -1    0    0    0    0  0.00000000000E+00  0.00000000000E+00  0.42561509872E-11  0.25126700000E+02  0.25126700000E+02 0.  1.
      622    2    1    2    0    0  0.24918737788E-01 -0.20747466863E-01  0.78052412762E+01  0.78060294908E+01  0.10608313316E+00 0.  0.
       11    1    1    2    0    0 -0.25083570538E-01  0.66277542174E-02  0.41938862466E+01  0.41939665262E+01  0.51109989000E-03 0. -1.
     -623    1    1    2    0    0  0.16483274948E-03  0.14119712646E-01  0.87246630458E-03  0.25126703983E+02  0.25126700000E+02 0.  1.
     -611    1    3    3    0    0 -0.78120851347E-02 -0.79485060793E-02  0.69409834798E+01  0.69409996307E+01  0.10000000000E-01 0. -1.
      611    1    3    3    0    0  0.32730822923E-01 -0.12798960784E-01  0.86425779642E+00  0.86502986008E+00  0.10000000000E-01 0.  1.
</event>
<event>
 7   0  0.6206631E-02  0.9118800E+02  0.7818608E-02  0.1180000E+00
       11   -1    0    0    0    0  0.00000000000E+00  0.00000000000E+00  0.11999999989E+02  0.12000000000E+02  0.51109989000E-03 0. -1.
     -623   -1    0    0    0    0  0.00000000000E+00  0.00000000000E+00  0.42561509872E-11  0.25126700000E+02  0.25126700000E+02 0.  1.
      622    2    1    2    0    0  0.29777695100E-01  0.61311786796E-02  0.11521482525E+02  0.11521849008E+02  0.86721833008E-01 0.  0.
       11    1    1    2    0    0 -0.32603804877E-02 -0.32911251632E-01  0.47697720789E+00  0.47812268157E+00  0.51109989000E-03 0. -1.
     -623    1    1    2    0    0 -0.26517314613E-01  0.26780072952E-01  0.15402561070E-02  0.25126728311E+02  0.25126700000E+02 0.  1.
     -611    1    3    3    0    0  0.28094591490E-01  0.39904774498E-01  0.87553186937E+01  0.87554604176E+01  0.10000000000E-01 0. -1.
      611    1    3    3    0    0  0.16831036097E-02 -0.33773595819E-01  0.27661638314E+01  0.27663885900E+01  0.10000000000E-01 0.  1.
</event>
<event>
 7   0  0.6206631E-02  0.9118800E+02  0.7818608E-02  0.1180000E+00
       11   -1    0    0    0    0  0.00000000000E+00  0.00000000000E+00  0.11999999989E+02  0.12000000000E+02  0.51109989000E-03 0. -1.
     -623   -1    0    0    0    0  0.00000000000E+00  0.00000000000E+00  0.42561509872E-11  0.25126700000E+02  0.25126700000E+02 0. -1.
      622    2    1    2    0    0 -0.23576801286E-01  0.56840652269E-02  0.98059163698E+01  0.98064427240E+01  0.98665460946E-01 0.  0.
       11    1    1    2    0    0  0.24111074841E-01 -0.46437037199E-02  0.21934197492E+01  0.21935572400E+01  0.51109989000E-03 0. -1.
     -623    1    1    2    0    0 -0.53427355508E-03 -0.10403615070E-02  0.66387013259E-03  0.25126700036E+02  0.25126700000E+02 0. -1.
     -611    1    3    3    0    0 -0.60381774774E-01 -0.63185721892E-02  0.57406961931E+01  0.57410259243E+01  0.10000000000E-01 0.  1.
      611    1    3    3    0    0  0.36804973488E-01  0.12002637416E-01  0.40652201767E+01  0.40654167996E+01  0.10000000000E-01 0. -1.
</event>
<event>
 7   0  0.6206631E-02  0.9118800E+02  0.7818608E-02  0.1180000E+00
       11   -1    0    0    0    0  0.00000000000E+00  0.00000000000E+00  0.11999999989E+02  0.12000000000E+02  0.51109989000E-03 0.  1.
     -623   -1    0    0    0    0  0.00000000000E+00  0.00000000000E+00  0.42561509872E-11  0.25126700000E+02  0.25126700000E+02 0. -1.
      622    2    1    2    0    0  0.42688055152E-01 -0.13271436709E-01  0.42245043967E+01  0.42256596279E+01  0.88110680799E-01 0.  0.
       11    1    1    2    0    0 -0.47888179196E-01  0.27048484594E-01  0.77741414575E+01  0.77743360205E+01  0.51109989000E-03 0.  1.
     -623    1    1    2    0    0  0.52001240440E-02 -0.13777047885E-01  0.13541349756E-02  0.25126704352E+02  0.25126700000E+02 0. -1.
     -611    1    3    3    0    0  0.27134951075E-01 -0.33087806922E-01  0.92439549196E+00  0.92543942756E+00  0.10000000000E-01 0. -1.
      611    1    3    3    0    0  0.15553104077E-01  0.19816370213E-01  0.33001089047E+01  0.33002202003E+01  0.10000000000E-01 0.  1.
</event>
<event>
 7   0  0.6206631E-02  0.9118800E+02  0.7818608E-02  0.1180000E+00
       11   -1    0    0    0    0  0.00000000000E+00  0.00000000000E+00  0.11999999989E+02  0.12000000000E+02  0.51109989000E-03 0.  1.
     -623   -1    0    0    0    0  0.00000000000E+00  0.00000000000E+00  0.42561509872E-11  0.25126700000E+02  0.25126700000E+02 0. -1.
      622    2    1    2    0    0  0.64789916070E-03  0.97225709081E-03  0.11993021662E+02  0.11993509214E+02  0.10813563475E+00 0.  0.
       11    1    1    2    0    0  0.14535208345E-02 -0.28166810219E-02  0.56409382272E-02  0.64905948861E-02  0.51109989000E-03 0.  1.
     -623    1    1    2    0    0 -0.21014199952E-02  0.18444239311E-02  0.13373889169E-02  0.25126700191E+02  0.25126700000E+02 0. -1.
     -611    1    3    3    0    0 -0.35407749012E-01  0.13370762860E-01  0.10106414938E+02  0.10106490755E+02  0.10000000000E-01 0.  1.
      611    1    3    3    0    0  0.36055648173E-01 -0.12398505769E-01  0.18866067241E+01  0.18870184589E+01  0.10000000000E-01 0. -1.
</event>
<event>
 7   0  0.6206631E-02  0.9118800E+02  0.7818608E-02  0.1180000E+00
       11   -1    0    0    0    0  0.00000000000E+00  0.00000000000E+00  0.11999999989E+02  0.12000000000E+02  0.51109989000E-03 0. -1.
     -623   -1    0    0    0    0  0.00000000000E+00  0.00000000000E+00  0.42561509872E-11  0.25126700000E+02  0.25126700000E+02 0.  1.
      622    2    1    2    0    0 -0.89832324884E-03 -0.84466708412E-03  0.11998968294E+02  0.11999347742E+02  0.95417882234E-01 0.  0.
       11    1    1    2    0    0  0.47458069374E-05  0.11810433060E-04  0.40497779782E-03  0.65222094083E-03  0.51109989000E-03 0. -1.
     -623    1    1    2    0    0  0.89357744191E-03  0.83285665106E-03  0.62671692400E-03  0.25126700038E+02  0.25126700000E+02 0.  1.
     -611    1    3    3    0    0  0.35182413243E-01  0.23244555046E-01  0.82723584379E+01  0.82724719544E+01  0.10000000000E-01 0. -1.
      611    1    3    3    0    0 -0.36080736491E-01 -0.24089222130E-01  0.37266098565E+01  0.37268757871E+01  0.10000000000E-01 0.  1.
</event>
<event>
 7   0  0.6206631E-02  0.9118800E+02  0.7818608E-02  0.1180000E+00
       11   -1    0    0    0    0  0.00000000000E+00  0.00000000000E+00  0.11999999989E+02  0.12000000000E+02  0.51109989000E-03 0.  1.
     -623   -1    0    0    0    0  0.00000000000E+00  0.00000000000E+00  0.42561509872E-11  0.25126700000E+02  0.25126700000E+02 0.  1.
      622    2    1    2    0    0  0.15142313103E-02  0.35372738763E-02  0.11981664460E+02  0.11982151729E+02  0.10799084986E+00 0.  0.
       11    1    1    2    0    0 -0.98231424071E-04  0.21606641317E-03  0.17839047304E-01  0.17847945707E-01  0.51109989000E-03 0.  1.
     -623    1    1    2    0    0 -0.14159998862E-02 -0.37533402895E-02  0.49648182888E-03  0.25126700325E+02  0.25126700000E+02 0.  1.
     -611    1    3    3    0    0 -0.11742460307E-01  0.40494629372E-01  0.98898076829E+01  0.98899026135E+01  0.10000000000E-01 0.  1.
      611    1    3    3    0    0  0.13256691617E-01 -0.36957355496E-01  0.20918567771E+01  0.20922491157E+01  0.10000000000E-01 0. -1.
</event>
<event>
 7   0  0.6206631E-02  0.9118800E+02  0.7818608E-02  0.1180000E+00
       11   -1    0    0    0    0  0.00000000000E+00  0.00000000000E+00  0.11999999989E+02  0.12000000000E+02  0.51109989000E-03 0. -1.
     -623   -1    0    0    0    0  0.00000000000E+00  0.00000000000E+00  0.42561509872E-11  0.25126700000E+02  0.25126700000E+02 0. -1.
      622    2    1    2    0    0 -0.16420166150E-01 -0.24895045464E-01  0.10707156262E+02  0.10707884691E+02  0.12128456044E+00 0.  0.
       11    1    1    2    0    0  0.94264379726E-02  0.28610050850E-01  0.12917627619E+01  0.12921140379E+01  0.51109989000E-03 0. -1.
     -623    1    1    2    0    0  0.69937281776E-02 -0.37150053852E-02  0.10809650074E-02  0.25126701271E+02  0.25126700000E+02 0. -1.
     -611    1    3    3    0    0 -0.59287221607E-01 -0.28919750050E-01  0.37899848327E+01  0.37905720358E+01  0.10000000000E-01 0.  1.
      611    1    3    3    0    0  0.42867055457E-01  0.40247045854E-02  0.69171714295E+01  0.69173126551E+01  0.10000000000E-01 0. -1.
</event>
<event>
 7   0  0.6206631E-02  0.9118800E+02  0.7818608E-02  0.1180000E+00
       11   -1    0    0    0    0  0.00000000000E+00  0.00000000000E+00  0.11999999989E+02  0.12000000000E+02  0.51109989000E-03 0.  1.
     -623   -1    0    0    0    0  0.00000000000E+00  0.00000000000E+00  0.42561509872E-11  0.25126700000E+02  0.25126700000E+02 0.  1.
      622    2    1    2    0    0 -0.37123915011E-01 -0.48343606887E-01  0.88978762543E+01  0.88989830790E+01  0.12642276054E+00 0.  0.
       11    1    1    2    0    0  0.40462061328E-01  0.41275152709E-01  0.31004768972E+01  0.31010156510E+01  0.51109989000E-03 0.  1.
     -623    1    1    2    0    0 -0.33381463176E-02  0.70684541773E-02  0.16468375964E-02  0.25126701270E+02  0.25126700000E+02 0.  1.
     -611    1    3    3    0    0 -0.32407731457E-01 -0.21396626858E-01  0.76181998429E+00  0.76287467199E+00  0.10000000000E-01 0.  1.
      611    1    3    3    0    0 -0.47161835531E-02 -0.26946980029E-01  0.81360562700E+01  0.81361084070E+01  0.10000000000E-01 0.  1.
</event>
<event>
 7   0  0.6206631E-02  0.9118800E+02  0.7818608E-02  0.1180000E+00
       11   -1    0    0    0    0  0.00000000000E+00  0.00000000000E+00  0.11999999989E+02  0.12000000000E+02  0.51109989000E-03 0.  1.
     -623   -1    0    0    0    0  0.00000000000E+00  0.00000000000E+00  0.42561509872E-11  0.25126700000E+02  0.25126700000E+02 0.  1.
      622    2    1    2    0    0 -0.32509820958E-02  0.99741759486E-03  0.11468508802E+02  0.11468970971E+02  0.10290498154E+00 0.  0.
       11    1    1    2    0    0  0.29597988869E-02 -0.11370928414E-02  0.53101931037E+00  0.53102902237E+00  0.51109989000E-03 0.  1.
     -623    1    1    2    0    0  0.29118320892E-03  0.13967524650E-03  0.47187692481E-03  0.25126700007E+02  0.25126700000E+02 0.  1.
     -611    1    3    3    0    0 -0.19486895153E-02 -0.20987506630E-01  0.10799307191E+02  0.10799332391E+02  0.10000000000E-01 0.  1.
      611    1    3    3    0    0 -0.13022925805E-02  0.21984924225E-01  0.66920161051E+00  0.66963858041E+00  0.10000000000E-01 0. -1.
</event>
<event>
 7   0  0.6206631E-02  0.9118800E+02  0.7818608E-02  0.1180000E+00
       11   -1    0    0    0    0  0.00000000000E+00  0.00000000000E+00  0.11999999989E+02  0.12000000000E+02  0.51109989000E-03 0. -1.
     -623   -1    0    0    0    0  0.00000000000E+00  0.00000000000E+00  0.42561509872E-11  0.25126700000E+02  0.25126700000E+02 0. -1.
      622    2    1    2    0    0 -0.12936281811E-01 -0.67349962447E-02  0.99929909938E+01  0.99931383590E+01  0.52273832766E-01 0.  0.
       11    1    1    2    0    0  0.11907227254E-01  0.34582442434E-02  0.20068230362E+01  0.20068614056E+01  0.51109989000E-03 0. -1.
     -623    1    1    2    0    0  0.10290545563E-02  0.32767520013E-02  0.18595921816E-03  0.25126700235E+02  0.25126700000E+02 0. -1.
     -611    1    3    3    0    0 -0.16520262143E-01  0.98130181328E-02  0.83730475977E+01  0.83730756169E+01  0.10000000000E-01 0. -1.
      611    1    3    3    0    0  0.35839803326E-02 -0.16548014378E-01  0.16199433961E+01  0.16200627421E+01  0.10000000000E-01 0.  1.
</event>
<event>
 7   0  0.6206631E-02  0.9118800E+02  0.7818608E-02  0.1180000E+00
       11   -1    0    0    0    0  0.00000000000E+00  0.00000000000E+00  0.11999999989E+02  0.12000000000E+02  0.51109989000E-03 0.  1.
     -623   -1    0    0    0    0  0.00000000000E+00  0.00000000000E+00  0.42561509872E-11  0.25126700000E+02  0.25126700000E+02 0. -1.
      622    2    1    2    0    0  0.84798023188E-02  0.10987925298E+00  0.45530599311E+01  0.45552127873E+01  0.86391227144E-01 0.  0.
       11    1    1    2    0    0  0.34244871424E-01 -0.21122080494E+00  0.74414700749E+01  0.74445459281E+01  0.51109989000E-03 0.  1.
     -623    1    1    2    0    0 -0.42724673742E-01  0.10134155196E+00  0.54699831618E-02  0.25126941285E+02  0.25126700000E+02 0. -1.
     -611    1    3    3    0    0  0.34497001529E-01  0.11408913863E-01  0.12451789846E+01  0.12457491361E+01  0.10000000000E-01 0. -1.
      611    1    3    3    0    0 -0.26017199210E-01  0.98470339120E-01  0.33078809465E+01  0.33094636512E+01  0.10000000000E-01 0.  1.
</event>
<event>
 7   0  0.6206631E-02  0.9118800E+02  0.7818608E-02  0.1180000E+00
       11   -1    0    0    0    0  0.00000000000E+00  0.00000000000E+00  0.11999999989E+02  0.12000000000E+02  0.51109989000E-03 0. -1.
     -623   -1    0    0    0    0  0.00000000000E+00  0.00000000000E+00  0.42561509872E-11  0.25126700000E+02  0.25126700000E+02 0. -1.
      622    2    1    2    0    0  0.11072994830E-01 -0.75844597617E-03  0.11416526212E+02  0.11416895729E+02  0.91181978131E-01 0.  0.
       11    1    1    2    0    0 -0.92120319837E-02  0.62744828163E-03  0.58303086471E+00  0.58310419794E+00  0.51109989000E-03 0. -1.
     -623    1    1    2    0    0 -0.18609628461E-02  0.13099769454E-03  0.44291259516E-03  0.25126700073E+02  0.25126700000E+02 0. -1.
     -611    1    3    3    0    0 -0.46919489410E-02 -0.39500561303E-01  0.79013363487E+01  0.79014428052E+01  0.10000000000E-01 0. -1.
      611    1    3    3    0    0  0.15764943771E-01  0.38742115327E-01  0.35151898631E+01  0.35154529237E+01  0.10000000000E-01 0. -1.
</event>
<event>
 7   0  0.6206631E-02  0.9118800E+02  0.7818608E-02  0.1180000E+00
       11   -1    0    0    0    0  0.00000000000E+00  0.00000000000E+00  0.11999999989E+02  0.12000000000E+02  0.51109989000E-03 0. -1.
     -623   -1    0    0    0    0  0.00000000000E+00  0.00000000000E+00  0.42561509872E-11  0.25126700000E+02  0.25126700000E+02 0.  1.
      622    2    1    2    0    0 -0.10653981309E-01 -0.41022142572E-02  0.11857630170E+02  0.11858070450E+02  0.10154415253E+00 0.  0.
       11    1    1    2    0    0  0.12432126953E-01  0.80296702910E-02  0.14115448726E+00  0.14192915093E+00  0.51109989000E-03 0.  1.
     -623    1    1    2    0    0 -0.17781456434E-02 -0.39274560338E-02  0.12153321092E-02  0.25126700399E+02  0.25126700000E+02 0.  1.
     -611    1    3    3    0    0  0.38153939651E-01 -0.56994871422E-02  0.82460057230E+01  0.82461020241E+01  0.10000000000E-01 0. -1.
      611    1    3    3    0    0 -0.48807920960E-01  0.15972728850E-02  0.36116244467E+01  0.36119684257E+01  0.10000000000E-01 0.  1.
</event>
<event>
 7   0  0.6206631E-02  0.9118800E+02  0.7818608E-02  0.1180000E+00
       11   -1    0    0    0    0  0.00000000000E+00  0.00000000000E+00  0.11999999989E+02  0.12000000000E+02  0.51109989000E-03 0. -1.
     -623   -1    0    0    0    0  0.00000000000E+00  0.00000000000E+00  0.42561509872E-11  0.25126700000E+02  0.25126700000E+02 0.  1.
      622    2    1    2    0    0  0.41224938922E+00 -0.19299024514E-01  0.71548988359E+01  0.71680255502E+01  0.13300723443E+00 0.  0.
       11    1    1    2    0    0 -0.31768689531E+00  0.80038415123E-01  0.48205913755E+01  0.48317111443E+01  0.51109989000E-03 0. -1.
     -623    1    1    2    0    0 -0.94562493909E-01 -0.60739390609E-01  0.24509777730E-01  0.25126963306E+02  0.25126700000E+02 0.  1.
     -611    1    3    3    0    0  0.11502334439E+00 -0.45138631542E-01  0.29126178359E+01  0.29152547957E+01  0.10000000000E-01 0. -1.
      611    1    3    3    0    0  0.29722604483E+00  0.25839607028E-01  0.42422810000E+01  0.42527707545E+01  0.10000000000E-01 0.  1.
</event>
<event>
 7   0  0.6206631E-02  0.9118800E+02  0.7818608E-02  0.1180000E+00
       11   -1    0    0    0    0  0.00000000000E+00  0.00000000000E+00  0.11999999989E+02  0.12000000000E+02  0.51109989000E-03 0. -1.
     -623   -1    0    0    0    0  0.00000000000E+00  0.00000000000E+00  0.42561509872E-11  0.25126700000E+02  0.25126700000E+02 0.  1.
      622    2    1    2    0    0  0.71994695891E-01 -0.48716843433E-01  0.94259905191E+01  0.94271067145E+01  0.11613429475E+00 0.  0.
       11    1    1    2    0    0 -0.67757201024E-01  0.56411742785E-01  0.25713804979E+01  0.25728916124E+01  0.51109989000E-03 0. -1.
     -623    1    1    2    0    0 -0.42374948666E-02 -0.76948993523E-02  0.26289721962E-02  0.25126701673E+02  0.25126700000E+02 0.  1.
     -611    1    3    3    0    0  0.27936268268E-01  0.98011539580E-03  0.51009165084E+00  0.51095487860E+00  0.10000000000E-01 0.  1.
      611    1    3    3    0    0  0.44058427623E-01 -0.49696958829E-01  0.89158988682E+01  0.89161518359E+01  0.10000000000E-01 0. -1.
</event>
<event>
 7   0  0.6206631E-02  0.9118800E+02  0.7818608E-02  0.1180000E+00
       11   -1    0    0    0    0  0.00000000000E+00  0.00000000000E+00  0.11999999989E+02  0.12000000000E+02  0.51109989000E-03 0.  1.
     -623   -1    0    0    0    0  0.00000000000E+00  0.00000000000E+00  0.42561509872E-11  0.25126700000E+02  0.25126700000E+02 0.  1.
      622    2    1    2    0    0 -0.36206351449E-01  0.25888569524E-01  0.89101136352E+01  0.89106182165E+01  0.83731064840E-01 0.  0.
       11    1    1    2    0    0 -0.65981585778E-01  0.92170312106E-01  0.30868158521E+01  0.30888964538E+01  0.51109989000E-03 0.  1.
     -623    1    1    2    0    0  0.10218793723E+00 -0.11805888163E+00  0.30705018271E-02  0.25127185330E+02  0.25126700000E+02 0.  1.
     -611    1    3    3    0    0 -0.43287641133E-01 -0.16521960397E-01  0.34416156790E+01  0.34419420792E+01  0.10000000000E-01 0.  1.
      611    1    3    3    0    0  0.70812896835E-02  0.42410529921E-01  0.54684979562E+01  0.54686761373E+01  0.10000000000E-01 0. -1.
</event>
<event>
 7   0  0.6206631E-02  0.9118800E+02  0.7818608E-02  0.1180000E+00
       11   -1    0    0    0    0  0.00000000000E+00  0.00000000000E+00  0.11999999989E+02  0.12000000000E+02  0.51109989000E-03 0.  1.
     -623   -1    0    0    0    0  0.00000000000E+00  0.00000000000E+00  0.42561509872E-11  0.25126700000E+02  0.25126700000E+02 0. -1.
      622    2    1    2    0    0 -0.95627170486E-01  0.20482426175E+00  0.99970605948E+01  0.10000128574E+02  0.10125919553E+00 0.  0.
       11    1    1    2    0    0  0.92941920602E-01 -0.19629695073E+00  0.19880369033E+01  0.19998654163E+01  0.51109989000E-03 0.  1.
     -623    1    1    2    0    0  0.26852498841E-02 -0.85273110178E-02  0.14902491035E-01  0.25126706010E+02  0.25126700000E+02 0. -1.
     -611    1    3    3    0    0 -0.46982899420E-01  0.18833259021E+00  0.82211812203E+01  0.82234784133E+01  0.10000000000E-01 0.  1.
      611    1    3    3    0    0 -0.48644271066E-01  0.16491671542E-01  0.17758793745E+01  0.17766501606E+01  0.10000000000E-01 0. -1.
</event>
<event>
 7   0  0.6206631E-02  0.9118800E+02  0.7818608E-02  0.1180000E+00
       11   -1    0    0    0    0  0.00000000000E+00  0.00000000000E+00  0.11999999989E+02  0.12000000000E+02  0.51109989000E-03 0. -1.
     -623   -1    0    0    0    0  0.00000000000E+00  0.00000000000E+00  0.42561509872E-11  0.25126700000E+02  0.25126700000E+02 0. -1.
      622    2    1    2    0    0  0.20246975784E-02 -0.59307662091E-02  0.11988105755E+02  0.11989669888E+02  0.19355914175E+00 0.  0.
       11    1    1    2    0    0  0.29156230347E-02  0.35697799365E-02  0.92298735797E-02  0.10329374419E-01  0.51109989000E-03 0. -1.
     -623    1    1    2    0    0 -0.49403206131E-02  0.23609862726E-02  0.26643601744E-02  0.25126700738E+02  0.25126700000E+02 0. -1.
     -611    1    3    3    0    0  0.20673467639E-01 -0.60874650949E-01  0.10720553122E+02  0.10720750550E+02  0.10000000000E-01 0. -1.
      611    1    3    3    0    0 -0.18648770061E-01  0.54943884740E-01  0.12675526332E+01  0.12689193375E+01  0.10000000000E-01 0.  1.
</event>
<event>
 7   0  0.6206631E-02  0.9118800E+02  0.7818608E-02  0.1180000E+00
       11   -1    0    0    0    0  0.00000000000E+00  0.00000000000E+00  0.11999999989E+02  0.12000000000E+02  0.51109989000E-03 0.  1.
     -623   -1    0    0    0    0  0.00000000000E+00  0.00000000000E+00  0.42561509872E-11  0.25126700000E+02  0.25126700000E+02 0.  1.
      622    2    1    2    0    0  0.69315737577E-02  0.14427498897E-01  0.11330295705E+02  0.11330597255E+02  0.81099900766E-01 0.  0.
       11    1    1    2    0    0  0.71898685937E-02 -0.14039028863E-01  0.66921271787E+00  0.66939876869E+00  0.51109989000E-03 0.  1.
     -623    1    1    2    0    0 -0.14121442351E-01 -0.38847003384E-03  0.49156599032E-03  0.25126703976E+02  0.25126700000E+02 0.  1.
     -611    1    3    3    0    0  0.28167397904E-01 -0.14550949340E-01  0.24777436711E+01  0.24779666730E+01  0.10000000000E-01 0. -1.
      611    1    3    3    0    0 -0.21235824146E-01  0.28978448237E-01  0.88525520341E+01  0.88526305823E+01  0.10000000000E-01 0.  1.
</event>
<event>
 7   0  0.6206631E-02  0.9118800E+02  0.7818608E-02  0.1180000E+00
       11   -1    0    0    0    0  0.00000000000E+00  0.00000000000E+00  0.11999999989E+02  0.12000000000E+02  0.51109989000E-03 0.  1.
     -623   -1    0    0    0    0  0.00000000000E+00  0.00000000000E+00  0.42561509872E-11  0.25126700000E+02  0.25126700000E+02 0. -1.
      622    2    1    2    0    0  0.96025973585E-02 -0.11752885950E-01  0.96144886145E+01  0.96159210372E+01  0.16527472888E+00 0.  0.
       11    1    1    2    0    0 -0.30443120318E-02  0.11393671192E-01  0.23840488375E+01  0.23840780617E+01  0.51109989000E-03 0.  1.
     -623    1    1    2    0    0 -0.65582853267E-02  0.35921475802E-03  0.14625371059E-02  0.25126700901E+02  0.25126700000E+02 0. -1.
     -611    1    3    3    0    0 -0.20981927263E-01  0.69473990481E-01  0.56174562147E+01  0.56179338908E+01  0.10000000000E-01 0. -1.
      611    1    3    3    0    0  0.30584524621E-01 -0.81226876431E-01  0.39970323998E+01  0.39979871465E+01  0.10000000000E-01 0.  1.
</event>
<event>
 7   0  0.6206631E-02  0.9118800E+02  0.7818608E-02  0.1180000E+00
       11   -1    0    0    0    0  0.00000000000E+00  0.00000000000E+00  0.11999999989E+02  0.12000000000E+02  0.51109989000E-03 0. -1.
     -623   -1    0    0    0    0  0.00000000000E+00  0.00000000000E+00  0.42561509872E-11  0.25126700000E+02  0.25126700000E+02 0. -1.
      622    2    1    2    0    0  0.57805733169E-02 -0.75029542020E-02  0.82711250401E+01  0.82717174177E+01  0.98538824132E-01 0.  0.
       11    1    1    2    0    0 -0.10101545775E-01  0.55890940152E-02  0.37282642212E+01  0.37282821304E+01  0.51109989000E-03 0. -1.
     -623    1    1    2    0    0  0.43209724577E-02  0.19138601869E-02  0.61072770893E-03  0.25126700452E+02  0.25126700000E+02 0. -1.
     -611    1    3    3    0    0  0.16597252448E-01 -0.49347989223E-01  0.52323104161E+01  0.52325789992E+01  0.10000000000E-01 0.  1.
      611    1    3    3    0    0 -0.10816679131E-01  0.41845035021E-01  0.30388146241E+01  0.30391384185E+01  0.10000000000E-01 0. -1.
</event>
<event>
 7   0  0.6206631E-02  0.9118800E+02  0.7818608E-02  0.1180000E+00
       11   -1    0    0    0    0  0.00000000000E+00  0.00000000000E+00  0.11999999989E+02  0.12000000000E+02  0.51109989000E-03 0.  1.
     -623   -1    0    0    0    0  0.00000000000E+00  0.00000000000E+00  0.42561509872E-11  0.25126700000E+02  0.25126700000E+02 0. -1.
      622    2    1    2    0    0  0.33851043231E-02  0.20164175578E-02  0.11956913192E+02  0.11957115294E+02  0.69408593092E-01 0.  0.
       11    1    1    2    0    0 -0.22400991754E-02 -0.27756373444E-03  0.42822122748E-01  0.42884618521E-01  0.51109989000E-03 0.  1.
     -623    1    1    2    0    0 -0.11450051477E-02 -0.17388538234E-02  0.26467473934E-03  0.25126700088E+02  0.25126700000E+02 0. -1.
     -611    1    3    3    0    0 -0.10268433533E-01 -0.72253374156E-02  0.10980413068E+02  0.10980424800E+02  0.10000000000E-01 0.  1.
      611    1    3    3    0    0  0.13653537856E-01  0.92417549734E-02  0.97650012378E+00  0.97669049390E+00  0.10000000000E-01 0. -1.
</event>
<event>
 7   0  0.6206631E-02  0.9118800E+02  0.7818608E-02  0.1180000E+00
       11   -1    0    0    0    0  0.00000000000E+00  0.00000000000E+00  0.11999999989E+02  0.12000000000E+02  0.51109989000E-03 0.  1.
     -623   -1    0    0    0    0  0.00000000000E+00  0.00000000000E+00  0.42561509872E-11  0.25126700000E+02  0.25126700000E+02 0.  1.
      622    2    1    2    0    0  0.83060468691E-03 -0.19509076315E-01  0.10796042058E+02  0.10796627312E+02  0.11070633199E+00 0.  0.
       11    1    1    2    0    0  0.19796481402E-03  0.19795850647E-01  0.12032096947E+01  0.12033726545E+01  0.51109989000E-03 0.  1.
     -623    1    1    2    0    0 -0.10285695009E-02 -0.28677433244E-03  0.74823625064E-03  0.25126700034E+02  0.25126700000E+02 0.  1.
     -611    1    3    3    0    0  0.42625960165E-01  0.22389245776E-01  0.61690866389E+01  0.61692826332E+01  0.10000000000E-01 0.  1.
      611    1    3    3    0    0 -0.41795355478E-01 -0.41898322091E-01  0.46269554193E+01  0.46273446784E+01  0.10000000000E-01 0. -1.
</event>
<event>
 7   0  0.6206631E-02  0.9118800E+02  0.7818608E-02  0.1180000E+00
       11   -1    0    0    0    0  0.00000000000E+00  0.00000000000E+00  0.11999999989E+02  0.12000000000E+02  0.51109989000E-03 0. -1.
     -623   -1    0    0    0    0  0.00000000000E+00  0.00000000000E+00  0.42561509872E-11  0.25126700000E+02  0.25126700000E+02 0. -1.
      622    2    1    2    0    0  0.17631796184E+00  0.33465813266E-01  0.94969474332E+01  0.94992384792E+01  0.10636329669E+00 0.  0.
       11    1    1    2    0    0 -0.15855820693E+00 -0.61905553112E-01  0.24949381712E+01  0.25007378395E+01  0.51109989000E-03 0. -1.
     -623    1    1    2    0    0 -0.17759754910E-01  0.28439739846E-01  0.81143847653E-02  0.25126723681E+02  0.25126700000E+02 0. -1.
     -611    1    3    3    0    0  0.65793691917E-01  0.33093227428E-01  0.18593999946E+01  0.18608848196E+01  0.10000000000E-01 0.  1.
      611    1    3    3    0    0  0.11052426992E+00  0.37258583837E-03  0.76375474385E+01  0.76383536596E+01  0.10000000000E-01 0. -1.
</event>
<event>
 7   0  0.6206631E-02  0.9118800E+02  0.7818608E-02  0.1180000E+00
       11   -1    0    0    0    0  0.00000000000E+00  0.00000000000E+00  0.11999999989E+02  0.12000000000E+02  0.51109989000E-03 0.  1.
     -623   -1    0    0    0    0  0.00000000000E+00  0.00000000000E+00  0.42561509872E-11  0.25126700000E+02  0.25126700000E+02 0.  1.
      622    2    1    2    0    0  0.81207505114E-02 -0.18002854849E-01  0.11872072283E+02  0.11873598914E+02  0.18936953624E+00 0.  0.
       11    1    1    2    0    0 -0.90182275814E-02  0.26271847670E-01  0.12330847349E+00  0.12639928507E+00  0.51109989000E-03 0.  1.
     -623    1    1    2    0    0  0.89747706995E-03 -0.82689928205E-02  0.46192326512E-02  0.25126701801E+02  0.25126700000E+02 0.  1.
     -611    1    3    3    0    0 -0.81114132842E-01 -0.25760462151E-01  0.35307359097E+01  0.35317756395E+01  0.10000000000E-01 0. -1.
      611    1    3    3    0    0  0.89234883354E-01  0.77576073023E-02  0.83413363733E+01  0.83418232742E+01  0.10000000000E-01 0.  1.
</event>
<event>
 7   0  0.6206631E-02  0.9118800E+02  0.7818608E-02  0.1180000E+00
       11   -1    0    0    0    0  0.00000000000E+00  0.00000000000E+00  0.11999999989E+02  0.12000000000E+02  0.51109989000E-03 0.  1.
     -623   -1    0    0    0    0  0.00000000000E+00  0.00000000000E+00  0.42561509872E-11  0.25126700000E+02  0.25126700000E+02 0.  1.
      622    2    1    2    0    0 -0.26033267673E-02  0.29095908544E-01  0.11811780989E+02  0.11812230509E+02  0.98823670765E-01 0.  0.
       11    1    1    2    0    0 -0.49463123783E-02 -0.21862845119E-01  0.18642379058E+00  0.18776725199E+00  0.51109989000E-03 0.  1.
     -623    1    1    2    0    0  0.75496391456E-02 -0.72330634252E-02  0.17952099840E-02  0.25126702239E+02  0.25126700000E+02 0.  1.
     -611    1    3    3    0    0 -0.49537837324E-01  0.14061667103E-01  0.64844956602E+01  0.64847078342E+01  0.10000000000E-01 0. -1.
      611    1    3    3    0    0  0.46934510557E-01  0.15034241441E-01  0.53272853284E+01  0.53275226744E+01  0.10000000000E-01 0.  1.
</event>
<event>
 7   0  0.6206631E-02  0.9118800E+02  0.7818608E-02  0.1180000E+00
       11   -1    0    0    0    0  0.00000000000E+00  0.00000000000E+00  0.11999999989E+02  0.12000000000E+02  0.51109989000E-03 0. -1.
     -623   -1    0    0    0    0  0.00000000000E+00  0.00000000000E+00  0.42561509872E-11  0.25126700000E+02  0.25126700000E+02 0.  1.
      622    2    1    2    0    0 -0.12777800611E-02 -0.23575448631E-02  0.11990242199E+02  0.11990665644E+02  0.10073428332E+00 0.  0.
       11    1    1    2    0    0 -0.20762514894E-02  0.26816125318E-02  0.86811556642E-02  0.93341069648E-02  0.51109989000E-03 0. -1.
     -623    1    1    2    0    0  0.33540315505E-02 -0.32406766879E-03  0.10766340592E-02  0.25126700249E+02  0.25126700000E+02 0.  1.
     -611    1    3    3    0    0  0.77814180517E-02  0.11424894763E-02  0.19470179875E+00  0.19511700640E+00  0.10000000000E-01 0. -1.
      611    1    3    3    0    0 -0.90591981128E-02 -0.35000343394E-02  0.11795540401E+02  0.11795548638E+02  0.10000000000E-01 0. -1.
</event>
<event>
 6   0  0.6206631E-02  0.9118800E+02  0.7818608E-02  0.1180000E+00
       11   -1    0    0    0    0  0.00000000000E+00  0.00000000000E+00  0.11999999989E+02  0.12000000000E+02  0.51109989000E-03 0.  1.
     -623   -1    0    0    0    0  0.00000000000E+00  0.00000000000E+00  0.42561509872E-11  0.25126700000E+02  0.25126700000E+02 0.  1.
       11    1    1    2    0    0 -0.44058011693E-01 -0.35707437969E-02  0.47419501831E+00  0.47625102122E+00  0.51109989000E-03 0.  1.
     -623    1    1    2    0    0  0.10167622681E+00  0.43184831034E-01  0.55555137603E-02  0.25126943442E+02  0.25126700000E+02 0.  1.
     -611    1    1    2    0    0 -0.32881211257E-01  0.97448030939E-01  0.77201555372E+01  0.77208470268E+01  0.10000000000E-01 0.  1.
      611    1    1    2    0    0 -0.24737003861E-01 -0.13706211818E+00  0.38000939198E+01  0.38026585099E+01  0.10000000000E-01 0. -1.
</event>
<event>
 7   0  0.6206631E-02  0.9118800E+02  0.7818608E-02  0.1180000E+00
       11   -1    0    0    0    0  0.00000000000E+00  0.00000000000E+00  0.11999999989E+02  0.12000000000E+02  0.51109989000E-03 0.  1.
     -623   -1    0    0    0    0  0.00000000000E+00  0.00000000000E+00  0.42561509872E-11  0.25126700000E+02  0.25126700000E+02 0. -1.
      622    2    1    2    0    0 -0.54197534332E-02  0.91562364297E-02  0.10564583210E+02  0.10565045317E+02  0.98239143559E-01 0.  0.
       11    1    1    2    0    0  0.88957828633E-02 -0.85608752380E-02  0.14349012274E+01  0.14349544303E+01  0.51109989000E-03 0.  1.
     -623    1    1    2    0    0 -0.34760294301E-02 -0.59536119174E-03  0.51555138925E-03  0.25126700253E+02  0.25126700000E+02 0. -1.
     -611    1    3    3    0    0 -0.95429106102E-02 -0.36602738030E-01  0.74938166079E+01  0.74939187466E+01  0.10000000000E-01 0.  1.
      611    1    3    3    0    0  0.41231571771E-02  0.45758974459E-01  0.30707666024E+01  0.30711265703E+01  0.10000000000E-01 0. -1.
</event>
<event>
 7   0  0.6206631E-02  0.9118800E+02  0.7818608E-02  0.1180000E+00
       11   -1    0    0    0    0  0.00000000000E+00  0.00000000000E+00  0.11999999989E+02  0.12000000000E+02  0.51109989000E-03 0.  1.
     -623   -1    0    0    0    0  0.00000000000E+00  0.00000000000E+00  0.42561509872E-11  0.25126700000E+02  0.25126700000E+02 0.  1.
      622    2    1    2    0    0 -0.20368269770E-01  0.14776747411E-01  0.30403781377E+01  0.30418843903E+01  0.92348279373E-01 0.  0.
       11    1    1    2    0    0  0.22612264415E-01 -0.16410489614E-01  0.89580718235E+01  0.89581154086E+01  0.51109989000E-03 0.  1.
     -623    1    1    2    0    0 -0.22439946444E-02  0.16337422030E-02  0.15500279451E-02  0.25126700201E+02  0.25126700000E+02 0.  1.
     -611    1    3    3    0    0 -0.36037377729E-01 -0.90947999630E-02  0.26684944121E+01  0.26687719714E+01  0.10000000000E-01 0.  1.
      611    1    3    3    0    0  0.15669107959E-01  0.23871547374E-01  0.37188372563E+00  0.37311241886E+00  0.10000000000E-01 0. -1.
</event>
<event>
 7   0  0.6206631E-02  0.9118800E+02  0.7818608E-02  0.1180000E+00
       11   -1    0    0    0    0  0.00000000000E+00  0.00000000000E+00  0.11999999989E+02  0.12000000000E+02  0.51109989000E-03 0.  1.
     -623   -1    0    0    0    0  0.00000000000E+00  0.00000000000E+00  0.42561509872E-11  0.25126700000E+02  0.25126700000E+02 0.  1.
      622    2    1    2    0    0  0.58221044039E-02 -0.27723284782E-02  0.11862033390E+02  0.11862469138E+02  0.10147080423E+00 0.  0.
       11    1    1    2    0    0  0.14269512905E-02 -0.12216257151E-02  0.13751571596E+00  0.13752949472E+00  0.51109989000E-03 0.  1.
     -623    1    1    2    0    0 -0.72490556944E-02  0.39939541933E-02  0.45088312529E-03  0.25126701367E+02  0.25126700000E+02 0.  1.
     -611    1    3    3    0    0 -0.74971741978E-02  0.70473936984E-02  0.24507710885E+00  0.24549676711E+00  0.10000000000E-01 0. -1.
      611    1    3    3    0    0  0.13319278602E-01 -0.98197221766E-02  0.11616956281E+02  0.11616972371E+02  0.10000000000E-01 0.  1.
</event>
<event>
 7   0  0.6206631E-02  0.9118800E+02  0.7818608E-02  0.1180000E+00
       11   -1    0    0    0    0  0.00000000000E+00  0.00000000000E+00  0.11999999989E+02  0.12000000000E+02  0.51109989000E-03 0.  1.
     -623   -1    0    0    0    0  0.00000000000E+00  0.00000000000E+00  0.42561509872E-11  0.25126700000E+02  0.25126700000E+02 0. -1.
      622    2    1    2    0    0  0.96679425121E-02  0.51086622928E-02  0.11525553512E+02  0.11526086447E+02  0.11029715251E+00 0.  0.
       11    1    1    2    0    0  0.14051744448E-01 -0.58143059676E-02  0.47365800314E+00  0.47390233470E+00  0.51109989000E-03 0.  1.
     -623    1    1    2    0    0 -0.23719686960E-01  0.70564367481E-03  0.78847385022E-03  0.25126711218E+02  0.25126700000E+02 0. -1.
     -611    1    3    3    0    0  0.47012080592E-01 -0.31290912556E-02  0.96319179031E+01  0.96320383314E+01  0.10000000000E-01 0.  1.
      611    1    3    3    0    0 -0.37344138080E-01  0.82377535484E-02  0.18936356091E+01  0.18940481159E+01  0.10000000000E-01 0. -1.
</event>
<event>
 7   0  0.6206631E-02  0.9118800E+02  0.7818608E-02  0.1180000E+00
       11   -1    0    0    0    0  0.00000000000E+00  0.00000000000E+00  0.11999999989E+02  0.12000000000E+02  0.51109989000E-03 0.  1.
     -623   -1    0    0    0    0  0.00000000000E+00  0.00000000000E+00  0.42561509872E-11  0.25126700000E+02  0.25126700000E+02 0. -1.
      622    2    1    2    0    0  0.85138155359E-01  0.23326357678E-02  0.91440981938E+01  0.91451227234E+01  0.10716296888E+00 0.  0.
       11    1    1    2    0    0 -0.77647664963E-01  0.14258333420E-02  0.28538192545E+01  0.28548757927E+01  0.51109989000E-03 0.  1.
     -623    1    1    2    0    0 -0.74904903962E-02 -0.37584691098E-02  0.20825407804E-02  0.25126701484E+02  0.25126700000E+02 0. -1.
     -611    1    3    3    0    0  0.95861711132E-01 -0.16693233658E-01  0.85214200473E+01  0.85219814453E+01  0.10000000000E-01 0. -1.
      611    1    3    3    0    0 -0.10723555773E-01  0.19025869426E-01  0.62267814654E+00  0.62314127815E+00  0.10000000000E-01 0.  1.
</event>
<event>
 7   0  0.6206631E-02  0.9118800E+02  0.7818608E-02  0.1180000E+00
       11   -1    0    0    0    0  0.00000000000E+00  0.00000000000E+00  0.11999999989E+02  0.12000000000E+02  0.51109989000E-03 0. -1.
     -623   -1    0    0    0    0  0.00000000000E+00  0.00000000000E+00  0.42561509872E-11  0.25126700000E+02  0.25126700000E+02 0. -1.
      622    2    1    2    0    0  0.12145018942E-02 -0.20704665968E-02  0.11933314235E+02  0.11933601228E+02  0.82727673068E-01 0.  0.
       11    1    1    2    0    0 -0.23784703364E-03 -0.31807082072E-02  0.66319578515E-01  0.66398201734E-01  0.51109989000E-03 0. -1.
     -623    1    1    2    0    0 -0.97665486051E-03  0.52511748039E-02  0.36617537117E-03  0.25126700570E+02  0.25126700000E+02 0. -1.
     -611    1    3    3    0    0 -0.30928590671E-01 -0.25466065776E-01  0.53494658114E+01  0.53496251799E+01  0.10000000000E-01 0. -1.
      611    1    3    3    0    0  0.32143092565E-01  0.23395599180E-01  0.65838484239E+01  0.65839760480E+01  0.10000000000E-01 0.  1.
</event>
<event>
 7   0  0.6206631E-02  0.9118800E+02  0.7818608E-02  0.1180000E+00
       11   -1    0    0    0    0  0.00000000000E+00  0.00000000000E+00  0.11999999989E+02  0.12000000000E+02  0.51109989000E-03 0.  1.
     -623   -1    0    0    0    0  0.00000000000E+00  0.00000000000E+00  0.42561509872E-11  0.25126700000E+02  0.25126700000E+02 0.  1.
      622    2    1    2    0    0  0.10650126703E-01 -0.22507394822E-01  0.11873404048E+02  0.11873754725E+02  0.87792828680E-01 0.  0.
       11    1    1    2    0    0  0.29249929088E-02 -0.92087457740E-02  0.12585018610E+00  0.12622157956E+00  0.51109989000E-03 0.  1.
     -623    1    1    2    0    0 -0.13575119611E-01  0.31716140596E-01  0.74575482437E-03  0.25126723695E+02  0.25126700000E+02 0.  1.
     -611    1    3    3    0    0 -0.29432945687E-01 -0.28151748204E-01  0.35759269096E+01  0.35761728261E+01  0.10000000000E-01 0. -1.
      611    1    3    3    0    0  0.40083072390E-01  0.56443533817E-02  0.82974771386E+01  0.82975818994E+01  0.10000000000E-01 0.  1.
</event>
<event>
 7   0  0.6206631E-02  0.9118800E+02  0.7818608E-02  0.1180000E+00
       11   -1    0    0    0    0  0.00000000000E+00  0.00000000000E+00  0.11999999989E+02  0.12000000000E+02  0.51109989000E-03 0. -1.
     -623   -1    0    0    0    0  0.00000000000E+00  0.00000000000E+00  0.42561509872E-11  0.25126700000E+02  0.25126700000E+02 0. -1.
      622    2    1    2    0    0 -0.42270231597E-02  0.32728524616E-02  0.10513730118E+02  0.10513921690E+02  0.63243431507E-01 0.  0.
       11    1    1    2    0    0  0.48096483959E-02 -0.29119837100E-02  0.14860675757E+01  0.14860782998E+01  0.51109989000E-03 0. -1.
     -623    1    1    2    0    0 -0.58262523620E-03 -0.36086875155E-03  0.20229545693E-03  0.25126700010E+02  0.25126700000E+02 0. -1.
     -611    1    3    3    0    0  0.94390575960E-02  0.20436905058E-01  0.86567205213E+01  0.86567555670E+01  0.10000000000E-01 0. -1.
      611    1    3    3    0    0 -0.13666080756E-01 -0.17164052596E-01  0.18570095967E+01  0.18571661231E+01  0.10000000000E-01 0. -1.
</event>
<event>
 7   0  0.6206631E-02  0.9118800E+02  0.7818608E-02  0.1180000E+00
       11   -1    0    0    0    0  0.00000000000E+00  0.00000000000E+00  0.11999999989E+02  0.12000000000E+02  0.51109989000E-03 0.  1.
     -623   -1    0    0    0    0  0.00000000000E+00  0.00000000000E+00  0.42561509872E-11  0.25126700000E+02  0.25126700000E+02 0. -1.
      622    2    1    2    0    0  0.12940728552E-01 -0.26743971196E-01  0.11471764101E+02  0.11472499436E+02  0.12644765818E+00 0.  0.
       11    1    1    2    0    0  0.82206860064E-02  0.30060142247E-01  0.52656975068E+00  0.52749137944E+00  0.51109989000E-03 0.  1.
     -623    1    1    2    0    0 -0.21161414559E-01 -0.33161710513E-02  0.16661375802E-02  0.25126709185E+02  0.25126700000E+02 0. -1.
     -611    1    3    3    0    0  0.55755563419E-01  0.24154660610E-01  0.47593156475E+01  0.47597140212E+01  0.10000000000E-01 0.  1.
      611    1    3    3    0    0 -0.42814834867E-01 -0.50898631806E-01  0.67124484533E+01  0.67127854144E+01  0.10000000000E-01 0. -1.
</event>
<event>
 7   0  0.6206631E-02  0.9118800E+02  0.7818608E-02  0.1180000E+00
       11   -1    0    0    0    0  0.00000000000E+00  0.00000000000E+00  0.11999999989E+02  0.12000000000E+02  0.51109989000E-03 0. -1.
     -623   -1    0    0    0    0  0.00000000000E+00  0.00000000000E+00  0.42561509872E-11  0.25126700000E+02  0.25126700000E+02 0.  1.
      622    2    1    2    0    0 -0.55675432069E-02 -0.12403705231E-02  0.11968185199E+02  0.11968527568E+02  0.90347444996E-01 0.  0.
       11    1    1    2    0    0  0.49150837125E-02  0.59399657587E-02  0.30508706536E-01  0.31471950031E-01  0.51109989000E-03 0.  1.
     -623    1    1    2    0    0  0.65245949436E-03 -0.46995952356E-02  0.13060838808E-02  0.25126700482E+02  0.25126700000E+02 0.  1.
     -611    1    3    3    0    0  0.38407809865E-01  0.15032247410E-01  0.59571234465E+01  0.59572746189E+01  0.10000000000E-01 0. -1.
      611    1    3    3    0    0 -0.43975353071E-01 -0.16272617933E-01  0.60110617523E+01  0.60112529492E+01  0.10000000000E-01 0.  1.
</event>
<event>
 7   0  0.6206631E-02  0.9118800E+02  0.7818608E-02  0.1180000E+00
       11   -1    0    0    0    0  0.00000000000E+00  0.00000000000E+00  0.11999999989E+02  0.12000000000E+02  0.51109989000E-03 0. -1.
     -623   -1    0    0    0    0  0.00000000000E+00  0.00000000000E+00  0.42561509872E-11  0.25126700000E+02  0.25126700000E+02 0.  1.
      622    2    1    2    0    0  0.13511870315E-01  0.11125738837E-01  0.11500232647E+02  0.11500722531E+02  0.10469693216E+00 0.  0.
       11    1    1    2    0    0 -0.38472427874E-01  0.30638305964E-01  0.49680145460E+00  0.49923018740E+00  0.51109989000E-03 0. -1.
     -623    1    1    2    0    0  0.24960557559E-01 -0.41764044801E-01  0.29658874994E-02  0.25126747282E+02  0.25126700000E+02 0.  1.
     -611    1    3    3    0    0 -0.44568658608E-01  0.82896032044E-03  0.56123597840E+01  0.56125457146E+01  0.10000000000E-01 0.  1.
      611    1    3    3    0    0  0.58080528923E-01  0.10296778516E-01  0.58878728630E+01  0.58881768165E+01  0.10000000000E-01 0. -1.
</event>
<event>
 7   0  0.6206631E-02  0.9118800E+02  0.7818608E-02  0.1180000E+00
       11   -1    0    0    0    0  0.00000000000E+00  0.00000000000E+00  0.11999999989E+02  0.12000000000E+02  0.51109989000E-03 0. -1.
     -623   -1    0    0    0    0  0.00000000000E+00  0.00000000000E+00  0.42561509872E-11  0.25126700000E+02  0.25126700000E+02 0. -1.
      622    2    1    2    0    0  0.99663054002E-03 -0.66811467701E-01  0.79139787358E+01  0.79150135094E+01  0.10915428530E+00 0.  0.
       11    1    1    2    0    0 -0.72344792036E-01  0.14296294561E+00  0.40816257453E+01  0.40847694132E+01  0.51109989000E-03 0. -1.
     -623    1    1    2    0    0  0.71348161496E-01 -0.76151477913E-01  0.43955080640E-02  0.25126917077E+02  0.25126700000E+02 0. -1.
     -611    1    3    3    0    0  0.10037884681E-01  0.24892223113E-01  0.98954082331E+00  0.98995526308E+00  0.10000000000E-01 0.  1.
      611    1    3    3    0    0 -0.90412541415E-02 -0.91703690814E-01  0.69244379125E+01  0.69250582463E+01  0.10000000000E-01 0. -1.
</event>
<event>
 7   0  0.6206631E-02  0.9118800E+02  0.7818608E-02  0.1180000E+00
       11   -1    0    0    0    0  0.00000000000E+00  0.00000000000E+00  0.11999999989E+02  0.12000000000E+02  0.51109989000E-03 0. -1.
     -623   -1    0    0    0    0  0.00000000000E+00  0.00000000000E+00  0.42561509872E-11  0.25126700000E+02  0.25126700000E+02 0.  1.
      622    2    1    2    0    0  0.32183628089E-01  0.19634989349E-02  0.11976864350E+02  0.11977185283E+02  0.81535320644E-01 0.  0.
       11    1    1    2    0    0 -0.66656067883E-03 -0.30484836788E-02  0.22574535442E-01  0.22794921132E-01  0.51109989000E-03 0. -1.
     -623    1    1    2    0    0 -0.31517067410E-01  0.10849847439E-02  0.56110402518E-03  0.25126719796E+02  0.25126700000E+02 0.  1.
     -611    1    3    3    0    0 -0.21876254205E-01  0.81312588396E-02  0.63054301561E+01  0.63054812776E+01  0.10000000000E-01 0. -1.
      611    1    3    3    0    0  0.54059882294E-01 -0.61677599046E-02  0.56714341935E+01  0.56717040052E+01  0.10000000000E-01 0.  1.
</event>
<event>
 7   0  0.6206631E-02  0.9118800E+02  0.7818608E-02  0.1180000E+00
       11   -1    0    0    0    0  0.00000000000E+00  0.00000000000E+00  0.11999999989E+02  0.12000000000E+02  0.51109989000E-03 0.  1.
     -623   -1    0    0    0    0  0.00000000000E+00  0.00000000000E+00  0.42561509872E-11  0.25126700000E+02  0.25126700000E+02 0.  1.
      622    2    1    2    0    0 -0.17500293162E-01  0.16701019201E-01  0.79066865435E+01  0.79072642873E+01  0.92472840830E-01 0.  0.
       11    1    1    2    0    0  0.12872349913E+00  0.48560592158E-01  0.40900913451E+01  0.40924045918E+01  0.51109989000E-03 0.  1.
     -623    1    1    2    0    0 -0.11122320596E+00 -0.65261611358E-01  0.32221004225E-02  0.25127031121E+02  0.25126700000E+02 0.  1.
     -611    1    3    3    0    0 -0.17447720011E-01  0.45789633337E-01  0.66970106810E+01  0.66971974120E+01  0.10000000000E-01 0.  1.
      611    1    3    3    0    0 -0.52573151115E-04 -0.29088614136E-01  0.12096758625E+01  0.12100668753E+01  0.10000000000E-01 0. -1.
</event>
<event>
 7   0  0.6206631E-02  0.9118800E+02  0.7818608E-02  0.1180000E+00
       11   -1    0    0    0    0  0.00000000000E+00  0.00000000000E+00  0.11999999989E+02  0.12000000000E+02  0.51109989000E-03 0. -1.
     -623   -1    0    0    0    0  0.00000000000E+00  0.00000000000E+00  0.42561509872E-11  0.25126700000E+02  0.25126700000E+02 0.  1.
      622    2    1    2    0    0 -0.87555829613E-02 -0.70398765775E-02  0.55306049824E+01  0.55313666888E+01  0.91102986284E-01 0.  0.
       11    1    1    2    0    0  0.58699047862E-02  0.10797365856E-01  0.64686211577E+01  0.64686328526E+01  0.51109989000E-03 0. -1.
     -623    1    1    2    0    0  0.28856781751E-02 -0.37574892787E-02  0.77384896990E-03  0.25126700459E+02  0.25126700000E+02 0.  1.
     -611    1    3    3    0    0 -0.37635389309E-01 -0.22691888185E-01  0.16671294789E+01  0.16677386017E+01  0.10000000000E-01 0. -1.
      611    1    3    3    0    0  0.28879806347E-01  0.15652011607E-01  0.38634755036E+01  0.38636280871E+01  0.10000000000E-01 0.  1.
</event>
<event>
 7   0  0.6206631E-02  0.9118800E+02  0.7818608E-02  0.1180000E+00
       11   -1    0    0    0    0  0.00000000000E+00  0.00000000000E+00  0.11999999989E+02  0.12000000000E+02  0.51109989000E-03 0. -1.
     -623   -1    0    0    0    0  0.00000000000E+00  0.00000000000E+00  0.42561509872E-11  0.25126700000E+02  0.25126700000E+02 0. -1.
      622    2    1    2    0    0 -0.60325211851E-02  0.11779681029E-01  0.11984956403E+02  0.11985475816E+02  0.11079446515E+00 0.  0.
       11    1    1    2    0    0  0.88415780986E-02 -0.63123233195E-02  0.96246015475E-02  0.14522847759E-01  0.51109989000E-03 0. -1.
     -623    1    1    2    0    0 -0.28090569135E-02 -0.54673577093E-02  0.54189850073E-02  0.25126701336E+02  0.25126700000E+02 0. -1.
     -611    1    3    3    0    0 -0.78667332043E-02  0.22918875688E-01  0.11753199262E+02  0.11753228495E+02  0.10000000000E-01 0. -1.
      611    1    3    3    0    0  0.18342120192E-02 -0.11139194660E-01  0.23175714027E+00  0.23224732088E+00  0.10000000000E-01 0.  1.
</event>
<event>
 6   0  0.6206631E-02  0.9118800E+02  0.7818608E-02  0.1180000E+00
       11   -1    0    0    0    0  0.00000000000E+00  0.00000000000E+00  0.11999999989E+02  0.12000000000E+02  0.51109989000E-03 0.  1.
     -623   -1    0    0    0    0  0.00000000000E+00  0.00000000000E+00  0.42561509872E-11  0.25126700000E+02  0.25126700000E+02 0.  1.
       11    1    1    2    0    0 -0.27988505285E-01  0.44883481504E-03  0.24849156801E+00  0.25006374883E+00  0.51109989000E-03 0.  1.
     -623    1    1    2    0    0  0.69501550836E-03  0.13713329756E-01  0.34535265403E-02  0.25126703989E+02  0.25126700000E+02 0.  1.
     -611    1    1    2    0    0  0.96393031021E-02  0.32920887700E-01  0.36141709116E+00  0.36317903959E+00  0.10000000000E-01 0. -1.
      611    1    1    2    0    0  0.17654186675E-01 -0.47083052271E-01  0.11386637803E+02  0.11386753222E+02  0.10000000000E-01 0.  1.
</event>
<event>
 7   0  0.6206631E-02  0.9118800E+02  0.7818608E-02  0.1180000E+00
       11   -1    0    0    0    0  0.00000000000E+00  0.00000000000E+00  0.11999999989E+02  0.12000000000E+02  0.51109989000E-03 0.  1.
     -623   -1    0    0    0    0  0.00000000000E+00  0.00000000000E+00  0.42561509872E-11  0.25126700000E+02  0.25126700000E+02 0. -1.
      622    2    1    2    0    0  0.97610498876E-02 -0.10868839594E-01  0.85167530779E+01  0.85167904146E+01  0.20556439893E-01 0.  0.
       11    1    1    2    0    0 -0.98030396076E-02  0.10945761990E-01  0.34831785546E+01  0.34832095851E+01  0.51109989000E-03 0.  1.
     -623    1    1    2    0    0  0.41989719975E-04 -0.76922395932E-04  0.68356607104E-04  0.25126700000E+02  0.25126700000E+02 0. -1.
     -611    1    3    3    0    0  0.64984325720E-02 -0.41265853194E-02  0.38918404156E+01  0.38918608761E+01  0.10000000000E-01 0.  1.
      611    1    3    3    0    0  0.32626173156E-02 -0.67422542745E-02  0.46249126623E+01  0.46249295386E+01  0.10000000000E-01 0. -1.
</event>
<event>
 7   0  0.6206631E-02  0.9118800E+02  0.7818608E-02  0.1180000E+00
       11   -1    0    0    0    0  0.00000000000E+00  0.00000000000E+00  0.11999999989E+02  0.12000000000E+02  0.51109989000E-03 0. -1.
     -623   -1    0    0    0    0  0.00000000000E+00  0.00000000000E+00  0.42561509872E-11  0.25126700000E+02  0.25126700000E+02 0.  1.
      622    2    1    2    0    0 -0.13567298852E-01 -0.74803559653E-02  0.11816117466E+02  0.11816401309E+02  0.80423275639E-01 0.  0.
       11    1    1    2    0    0  0.14720745312E-01  0.49941111789E-02  0.18293855559E+00  0.18359852350E+00  0.51109989000E-03 0. -1.
     -623    1    1    2    0    0 -0.11534464600E-02  0.24862447864E-02  0.94396748218E-03  0.25126700167E+02  0.25126700000E+02 0.  1.
     -611    1    3    3    0    0  0.17925447199E-01 -0.15577749263E-01  0.94909469529E+01  0.94909819329E+01  0.10000000000E-01 0. -1.
      611    1    3    3    0    0 -0.31492746052E-01  0.80973932975E-02  0.23251705131E+01  0.23254193763E+01  0.10000000000E-01 0.  1.
</event>
<event>
 7   0  0.6206631E-02  0.9118800E+02  0.7818608E-02  0.1180000E+00
       11   -1    0    0    0    0  0.00000000000E+00  0.00000000000E+00  0.11999999989E+02  0.12000000000E+02  0.51109989000E-03 0.  1.
     -623   -1    0    0    0    0  0.00000000000E+00  0.00000000000E+00  0.42561509872E-11  0.25126700000E+02  0.25126700000E+02 0. -1.
      622    2    1    2    0    0  0.82529799351E-02 -0.30695282653E-03  0.11202660259E+02  0.11203168795E+02  0.10642354748E+00 0.  0.
       11    1    1    2    0    0 -0.92020717477E-02 -0.17353773605E-02  0.79677590745E+00  0.79683109727E+00  0.51109989000E-03 0.  1.
     -623    1    1    2    0    0  0.94909181262E-03  0.20423301870E-02  0.56382248882E-03  0.25126700107E+02  0.25126700000E+02 0. -1.
     -611    1    3    3    0    0  0.46858327350E-01  0.86970295728E-02  0.89834493119E+01  0.89835812949E+01  0.10000000000E-01 0.  1.
      611    1    3    3    0    0 -0.38605347415E-01 -0.90039823994E-02  0.22192109472E+01  0.22195875006E+01  0.10000000000E-01 0. -1.
</event>
<event>
 7   0  0.6206631E-02  0.9118800E+02  0.7818608E-02  0.1180000E+00
       11   -1    0    0    0    0  0.00000000000E+00  0.00000000000E+00  0.11999999989E+02  0.12000000000E+02  0.51109989000E-03 0.  1.
     -623   -1    0    0    0    0  0.00000000000E+00  0.00000000000E+00  0.42561509872E-11  0.25126700000E+02  0.25126700000E+02 0. -1.
      622    2    1    2    0    0 -0.12710970218E-02 -0.19190093194E-02  0.11986022250E+02  0.11986396929E+02  0.94745245224E-01 0.  0.
       11    1    1    2    0    0 -0.52062065241E-02 -0.20062283910E-02  0.12394368680E-01  0.13601879902E-01  0.51109989000E-03 0.  1.
     -623    1    1    2    0    0  0.64773035459E-02  0.39252377104E-02  0.15833706089E-02  0.25126701191E+02  0.25126700000E+02 0. -1.
     -611    1    3    3    0    0  0.56775704626E-02  0.21440928746E-01  0.86150083391E+00  0.86184432182E+00  0.10000000000E-01 0. -1.
      611    1    3    3    0    0 -0.69486674844E-02 -0.23359938065E-01  0.11124521416E+02  0.11124552607E+02  0.10000000000E-01 0.  1.
</event>
<event>
 7   0  0.6206631E-02  0.9118800E+02  0.7818608E-02  0.1180000E+00
       11   -1    0    0    0    0  0.00000000000E+00  0.00000000000E+00  0.11999999989E+02  0.12000000000E+02  0.51109989000E-03 0.  1.
     -623   -1    0    0    0    0  0.00000000000E+00  0.00000000000E+00  0.42561509872E-11  0.25126700000E+02  0.25126700000E+02 0. -1.
      622    2    1    2    0    0 -0.55035596474E-01  0.42370476732E-01  0.11522359370E+02  0.11523009748E+02  0.10081673035E+00 0.  0.
       11    1    1    2    0    0  0.51111477379E-01 -0.38285793740E-01  0.47269459598E+00  0.47698912714E+00  0.51109989000E-03 0.  1.
     -623    1    1    2    0    0  0.39241190953E-02 -0.40846829921E-02  0.49460229136E-02  0.25126701125E+02  0.25126700000E+02 0. -1.
     -611    1    3    3    0    0 -0.49524833525E-02 -0.36028291985E-02  0.15508984404E+00  0.15553252776E+00  0.10000000000E-01 0.  1.
      611    1    3    3    0    0 -0.50083113122E-01  0.45973305931E-01  0.11367269526E+02  0.11367477220E+02  0.10000000000E-01 0.  1.
</event>
<event>
 7   0  0.6206631E-02  0.9118800E+02  0.7818608E-02  0.1180000E+00
       11   -1    0    0    0    0  0.00000000000E+00  0.00000000000E+00  0.11999999989E+02  0.12000000000E+02  0.51109989000E-03 0.  1.
     -623   -1    0    0    0    0  0.00000000000E+00  0.00000000000E+00  0.42561509872E-11  0.25126700000E+02  0.25126700000E+02 0.  1.
      622    2    1    2    0    0 -0.26484338317E-03  0.14551368996E-02  0.11988281124E+02  0.11988526291E+02  0.76655920076E-01 0.  0.
       11    1    1    2    0    0 -0.15604558299E-02  0.10078124144E-02  0.11310601618E-01  0.11473519093E-01  0.51109989000E-03 0.  1.
     -623    1    1    2    0    0  0.18252992131E-02 -0.24629493140E-02  0.40826374103E-03  0.25126700190E+02  0.25126700000E+02 0.  1.
     -611    1    3    3    0    0 -0.26297653181E-01 -0.28585349471E-02  0.19455360402E+01  0.19457415608E+01  0.10000000000E-01 0. -1.
      611    1    3    3    0    0  0.26032809798E-01  0.43136718467E-02  0.10042745083E+02  0.10042784730E+02  0.10000000000E-01 0.  1.
</event>
<event>
 7   0  0.6206631E-02  0.9118800E+02  0.7818608E-02  0.1180000E+00
       11   -1    0    0    0    0  0.00000000000E+00  0.00000000000E+00  0.11999999989E+02  0.12000000000E+02  0.51109989000E-03 0.  1.
     -623   -1    0    0    0    0  0.00000000000E+00  0.00000000000E+00  0.42561509872E-11  0.25126700000E+02  0.25126700000E+02 0. -1.
      622    2    1    2    0    0 -0.37202431056E-01  0.22866912973E-01  0.10663601123E+02  0.10664484440E+02  0.13012512474E+00 0.  0.
       11    1    1    2    0    0  0.23992460760E-02 -0.40568709858E-01  0.13348665904E+01  0.13354851748E+01  0.51109989000E-03 0.  1.
     -623    1    1    2    0    0  0.34803184980E-01  0.17701796885E-01  0.15322759205E-02  0.25126730385E+02  0.25126700000E+02 0. -1.
     -611    1    3    3    0    0 -0.35757407006E-01  0.58939381922E-01  0.95488220692E+01  0.95490761517E+01  0.10000000000E-01 0.  1.
      611    1    3    3    0    0 -0.14450240506E-02 -0.36072468950E-01  0.11147790536E+01  0.11154082882E+01  0.10000000000E-01 0. -1.
</event>
<event>
 7   0  0.6206631E-02  0.9118800E+02  0.7818608E-02  0.1180000E+00
       11   -1    0    0    0    0  0.00000000000E+00  0.00000000000E+00  0.11999999989E+02  0.12000000000E+02  0.51109989000E-03 0.  1.
     -623   -1    0    0    0    0  0.00000000000E+00  0.00000000000E+00  0.42561509872E-11  0.25126700000E+02  0.25126700000E+02 0. -1.
      622    2    1    2    0    0 -0.43529564120E-02 -0.57499861472E-03  0.11950223339E+02  0.11950793052E+02  0.11660804078E+00 0.  0.
       11    1    1    2    0    0  0.25146754781E-02 -0.15663160567E-02  0.49114856363E-01  0.49206780807E-01  0.51109989000E-03 0.  1.
     -623    1    1    2    0    0  0.18382809340E-02  0.21413146714E-02  0.66179352730E-03  0.25126700167E+02  0.25126700000E+02 0. -1.
     -611    1    3    3    0    0  0.52674553534E-02 -0.52197889063E-01  0.35726610270E+01  0.35730601982E+01  0.10000000000E-01 0.  1.
      611    1    3    3    0    0 -0.96204117654E-02  0.51622890449E-01  0.83775623122E+01  0.83777328538E+01  0.10000000000E-01 0. -1.
</event>
<event>
 7   0  0.6206631E-02  0.9118800E+02  0.7818608E-02  0.1180000E+00
       11   -1    0    0    0    0  0.00000000000E+00  0.00000000000E+00  0.11999999989E+02  0.12000000000E+02  0.51109989000E-03 0.  1.
     -623   -1    0    0    0    0  0.00000000000E+00  0.00000000000E+00  0.42561509872E-11  0.25126700000E+02  0.25126700000E+02 0. -1.
      622    2    1    2    0    0 -0.66660538939E-02 -0.42547601084E-02  0.11946568711E+02  0.11947153308E+02  0.11792222918E+00 0.  0.
       11    1    1    2    0    0  0.76588807455E-02 -0.55162846181E-02  0.51992466725E-01  0.52844731710E-01  0.51109989000E-03 0.  1.
     -623    1    1    2    0    0 -0.99282685162E-03  0.97710447264E-02  0.14388114673E-02  0.25126701961E+02  0.25126700000E+02 0. -1.
     -611    1    3    3    0    0  0.51857766332E-01  0.17503609378E-02  0.38195387842E+01  0.38199042940E+01  0.10000000000E-01 0.  1.
      611    1    3    3    0    0 -0.58523820226E-01 -0.60051210462E-02  0.81270299268E+01  0.81272490136E+01  0.10000000000E-01 0. -1.
</event>
<event>
 7   0  0.6206631E-02  0.9118800E+02  0.7818608E-02  0.1180000E+00
       11   -1    0    0    0    0  0.00000000000E+00  0.00000000000E+00  0.11999999989E+02  0.12000000000E+02  0.51109989000E-03 0.  1.
     -623   -1    0    0    0    0  0.00000000000E+00  0.00000000000E+00  0.42561509872E-11  0.25126700000E+02  0.25126700000E+02 0. -1.
      622    2    1    2    0    0  0.14542334987E-02 -0.67163931179E-03  0.11719868854E+02  0.11720623522E+02  0.13299330354E+00 0.  0.
       11    1    1    2    0    0  0.56165263615E-02  0.76458610681E-02  0.27921290235E+00  0.27937449887E+00  0.51109989000E-03 0.  1.
     -623    1    1    2    0    0 -0.70707598602E-02 -0.69742217563E-02  0.91823297838E-03  0.25126701980E+02  0.25126700000E+02 0. -1.
     -611    1    3    3    0    0  0.26923898130E-01  0.59007689204E-01  0.67991748734E+01  0.67994915812E+01  0.10000000000E-01 0.  1.
      611    1    3    3    0    0 -0.25469664632E-01 -0.59679328516E-01  0.49206939804E+01  0.49211319404E+01  0.10000000000E-01 0. -1.
</event>
<event>
 7   0  0.6206631E-02  0.9118800E+02  0.7818608E-02  0.1180000E+00
       11   -1    0    0    0    0  0.00000000000E+00  0.00000000000E+00  0.11999999989E+02  0.12000000000E+02  0.51109989000E-03 0. -1.
     -623   -1    0    0    0    0  0.00000000000E+00  0.00000000000E+00  0.42561509872E-11  0.25126700000E+02  0.25126700000E+02 0. -1.
      622    2    1    2    0    0 -0.26153854780E-03 -0.60002818735E-03  0.11997739211E+02  0.11998204911E+02  0.10570934270E+00 0.  0.
       11    1    1    2    0    0 -0.32092444212E-05 -0.41640574251E-04  0.17202683844E-02  0.17950740129E-02  0.51109989000E-03 0.  1.
     -623    1    1    2    0    0  0.26474779222E-03  0.64166876160E-03  0.54050941635E-03  0.25126700015E+02  0.25126700000E+02 0. -1.
     -611    1    3    3    0    0 -0.19100727968E-01 -0.40926789417E-01  0.30634883462E+01  0.30638375752E+01  0.10000000000E-01 0.  1.
      611    1    3    3    0    0  0.18839189420E-01  0.40326761229E-01  0.89342508651E+01  0.89343673354E+01  0.10000000000E-01 0. -1.
</event>
<event>
 7   0  0.6206631E-02  0.9118800E+02  0.7818608E-02  0.1180000E+00
       11   -1    0    0    0    0  0.00000000000E+00  0.00000000000E+00  0.11999999989E+02  0.12000000000E+02  0.51109989000E-03 0.  1.
     -623   -1    0    0    0    0  0.00000000000E+00  0.00000000000E+00  0.42561509872E-11  0.25126700000E+02  0.25126700000E+02 0.  1.
      622    2    1    2    0    0  0.88011671455E-01 -0.56101356278E-02  0.73587429283E+01  0.73600852252E+01  0.10945094693E+00 0.  0.
       11    1    1    2    0    0 -0.89553752792E-01  0.68186415267E-02  0.46390452547E+01  0.46399146010E+01  0.51109989000E-03 0.  1.
     -623    1    1    2    0    0  0.15420813360E-02 -0.12085058989E-02  0.22118061068E-02  0.25126700174E+02  0.25126700000E+02 0.  1.
     -611    1    3    3    0    0 -0.22016784736E-01  0.31025737823E-02  0.22960826924E+01  0.22962121189E+01  0.10000000000E-01 0.  1.
      611    1    3    3    0    0  0.11002845619E+00 -0.87127094101E-02  0.50626602359E+01  0.50638731063E+01  0.10000000000E-01 0. -1.
</event>
<event>
 7   0  0.6206631E-02  0.9118800E+02  0.7818608E-02  0.1180000E+00
       11   -1    0    0    0    0  0.00000000000E+00  0.00000000000E+00  0.11999999989E+02  0.12000000000E+02  0.51109989000E-03 0.  1.
     -623   -1    0    0    0    0  0.00000000000E+00  0.00000000000E+00  0.42561509872E-11  0.25126700000E+02  0.25126700000E+02 0.  1.
      622    2    1    2    0    0 -0.66049693451E-03  0.51798393994E-02  0.11872614318E+02  0.11873377669E+02  0.13453347243E+00 0.  0.
       11    1    1    2    0    0  0.16691066073E-02 -0.25421889302E-02  0.12658460231E+00  0.12662216002E+00  0.51109989000E-03 0.  1.
     -623    1    1    2    0    0 -0.10086096728E-02 -0.26376504692E-02  0.80106908796E-03  0.25126700171E+02  0.25126700000E+02 0.  1.
     -611    1    3    3    0    0  0.10807123653E-01  0.36001459459E-01  0.10670504171E+01  0.10677590982E+01  0.10000000000E-01 0.  1.
      611    1    3    3    0    0 -0.11467620588E-01 -0.30821620060E-01  0.10805563901E+02  0.10805618570E+02  0.10000000000E-01 0.  1.
</event>
<event>
 7   0  0.6206631E-02  0.9118800E+02  0.7818608E-02  0.1180000E+00
       11   -1    0    0    0    0  0.00000000000E+00  0.00000000000E+00  0.11999999989E+02  0.12000000000E+02  0.51109989000E-03 0.  1.
     -623   -1    0    0    0    0  0.00000000000E+00  0.00000000000E+00  0.42561509872E-11  0.25126700000E+02  0.25126700000E+02 0. -1.
      622    2    1    2    0    0 -0.20948565851E-02 -0.46564386527E-03  0.11991881762E+02  0.11992300953E+02  0.10024642519E+00 0.  0.
       11    1    1    2    0    0  0.16905187733E-02  0.27130838395E-02  0.69852298336E-02  0.76989178852E-02  0.51109989000E-03 0.  1.
     -623    1    1    2    0    0  0.40433781180E-03 -0.22474399742E-02  0.11329973742E-02  0.25126700129E+02  0.25126700000E+02 0. -1.
     -611    1    3    3    0    0 -0.29992203804E-01 -0.19439615458E-01  0.19252910174E+01  0.19256487043E+01  0.10000000000E-01 0. -1.
      611    1    3    3    0    0  0.27897347219E-01  0.18973971593E-01  0.10066590745E+02  0.10066652248E+02  0.10000000000E-01 0.  1.
</event>
<event>
 7   0  0.6206631E-02  0.9118800E+02  0.7818608E-02  0.1180000E+00
       11   -1    0    0    0    0  0.00000000000E+00  0.00000000000E+00  0.11999999989E+02  0.12000000000E+02  0.51109989000E-03 0.  1.
     -623   -1    0    0    0    0  0.00000000000E+00  0.00000000000E+00  0.42561509872E-11  0.25126700000E+02  0.25126700000E+02 0.  1.
      622    2    1    2    0    0  0.58361265549E-03  0.90868303694E-04  0.11991380436E+02  0.11991681303E+02  0.84943353901E-01 0.  0.
       11    1    1    2    0    0  0.70795086577E-03  0.24711441634E-03  0.82690145349E-02  0.83186588153E-02  0.51109989000E-03 0.  1.
     -623    1    1    2    0    0 -0.12915635213E-02 -0.33798272003E-03  0.35053874660E-03  0.25126700038E+02  0.25126700000E+02 0.  1.
     -611    1    3    3    0    0  0.54822675350E-03  0.35874436614E-01  0.31080274678E+01  0.31082506361E+01  0.10000000000E-01 0. -1.
      611    1    3    3    0    0  0.35385901983E-04 -0.35783568311E-01  0.88833529680E+01  0.88834306672E+01  0.10000000000E-01 0.  1.
</event>
<event>
 7   0  0.6206631E-02  0.9118800E+02  0.7818608E-02  0.1180000E+00
       11   -1    0    0    0    0  0.00000000000E+00  0.00000000000E+00  0.11999999989E+02  0.12000000000E+02  0.51109989000E-03 0. -1.
     -623   -1    0    0    0    0  0.00000000000E+00  0.00000000000E+00  0.42561509872E-11  0.25126700000E+02  0.25126700000E+02 0.  1.
      622    2    1    2    0    0 -0.61700860341E-01 -0.27306992835E-01  0.10886972820E+02  0.10887742939E+02  0.11052801421E+00 0.  0.
       11    1    1    2    0    0 -0.32741678500E-01 -0.15459501045E-01  0.11114533941E+01  0.11120431296E+01  0.51109989000E-03 0. -1.
     -623    1    1    2    0    0  0.94442538842E-01  0.42766493880E-01  0.15737748210E-02  0.25126913932E+02  0.25126700000E+02 0.  1.
     -611    1    3    3    0    0  0.58852233755E-02 -0.16670334391E-01  0.37987093661E+00  0.38041354390E+00  0.10000000000E-01 0. -1.
      611    1    3    3    0    0 -0.67586083717E-01 -0.10636658444E-01  0.10507101884E+02  0.10507329395E+02  0.10000000000E-01 0. -1.
</event>
<event>
 7   0  0.6206631E-02  0.9118800E+02  0.7818608E-02  0.1180000E+00
       11   -1    0    0    0    0  0.00000000000E+00  0.00000000000E+00  0.11999999989E+02  0.12000000000E+02  0.51109989000E-03 0.  1.
     -623   -1    0    0    0    0  0.00000000000E+00  0.00000000000E+00  0.42561509872E-11  0.25126700000E+02  0.25126700000E+02 0. -1.
      622    2    1    2    0    0 -0.11228468806E-01 -0.16500234025E+00  0.80971823698E+01  0.80995567393E+01  0.10538117653E+00 0.  0.
       11    1    1    2    0    0  0.30211514585E-01  0.14641926047E+00  0.38975623410E+01  0.39004286686E+01  0.51109989000E-03 0.  1.
     -623    1    1    2    0    0 -0.18983045779E-01  0.18583079783E-01  0.52552783252E-02  0.25126714592E+02  0.25126700000E+02 0. -1.
     -611    1    3    3    0    0 -0.17960858408E-01 -0.51913087480E-01  0.49588222696E+01  0.49591366045E+01  0.10000000000E-01 0.  1.
      611    1    3    3    0    0  0.67323896020E-02 -0.11308925277E+00  0.31383601002E+01  0.31404201347E+01  0.10000000000E-01 0. -1.
</event>
<event>
 7   0  0.6206631E-02  0.9118800E+02  0.7818608E-02  0.1180000E+00
       11   -1    0    0    0    0  0.00000000000E+00  0.00000000000E+00  0.11999999989E+02  0.12000000000E+02  0.51109989000E-03 0.  1.
     -623   -1    0    0    0    0  0.00000000000E+00  0.00000000000E+00  0.42561509872E-11  0.25126700000E+02  0.25126700000E+02 0. -1.
      622    2    1    2    0    0  0.26378501075E-02  0.18775584901E-02  0.11896717686E+02  0.11897205623E+02  0.10770071496E+00 0.  0.
       11    1    1    2    0    0 -0.35949473748E-02  0.52481005576E-06  0.10273013061E+00  0.10279428294E+00  0.51109989000E-03 0.  1.
     -623    1    1    2    0    0  0.95709726733E-03 -0.18780833001E-02  0.55217259445E-03  0.25126700094E+02  0.25126700000E+02 0. -1.
     -611    1    3    3    0    0  0.44579487822E-01 -0.29316893287E-01  0.64091811881E+01  0.64094110738E+01  0.10000000000E-01 0.  1.
      611    1    3    3    0    0 -0.41941637714E-01  0.31194451777E-01  0.54875364978E+01  0.54877945488E+01  0.10000000000E-01 0. -1.
</event>
<event>
 7   0  0.6206631E-02  0.9118800E+02  0.7818608E-02  0.1180000E+00
       11   -1    0    0    0    0  0.00000000000E+00  0.00000000000E+00  0.11999999989E+02  0.12000000000E+02  0.51109989000E-03 0. -1.
     -623   -1    0    0    0    0  0.00000000000E+00  0.00000000000E+00  0.42561509872E-11  0.25126700000E+02  0.25126700000E+02 0. -1.
      622    2    1    2    0    0 -0.39253724876E-02  0.90802464913E-02  0.11685873770E+02  0.11686249687E+02  0.93210116299E-01 0.  0.
       11    1    1    2    0    0  0.61032948244E-02 -0.89543058997E-02  0.31356260033E+00  0.31375021171E+00  0.51109989000E-03 0. -1.
     -623    1    1    2    0    0 -0.21779223368E-02 -0.12594059158E-03  0.56361881511E-03  0.25126700101E+02  0.25126700000E+02 0. -1.
     -611    1    3    3    0    0  0.38967097332E-01  0.17786913729E-01  0.76447214915E+01  0.76448480359E+01  0.10000000000E-01 0. -1.
      611    1    3    3    0    0 -0.42892469819E-01 -0.87066672376E-02  0.40411522784E+01  0.40414016514E+01  0.10000000000E-01 0.  1.
</event>
<event>
 7   0  0.6206631E-02  0.9118800E+02  0.7818608E-02  0.1180000E+00
       11   -1    0    0    0    0  0.00000000000E+00  0.00000000000E+00  0.11999999989E+02  0.12000000000E+02  0.51109989000E-03 0. -1.
     -623   -1    0    0    0    0  0.00000000000E+00  0.00000000000E+00  0.42561509872E-11  0.25126700000E+02  0.25126700000E+02 0.  1.
      622    2    1    2    0    0 -0.20203386328E-02 -0.81763661128E-03  0.11987374472E+02  0.11987749649E+02  0.94816543112E-01 0.  0.
       11    1    1    2    0    0 -0.12117124549E-02  0.53603038709E-02  0.10935822713E-01  0.12249675352E-01  0.51109989000E-03 0. -1.
     -623    1    1    2    0    0  0.32320510877E-02 -0.45426672597E-02  0.16896945782E-02  0.25126700675E+02  0.25126700000E+02 0.  1.
     -611    1    3    3    0    0 -0.74344822894E-02  0.17160189868E-01  0.63281669692E+00  0.63317194785E+00  0.10000000000E-01 0. -1.
      611    1    3    3    0    0  0.54141436566E-02 -0.17977826479E-01  0.11354557775E+02  0.11354577701E+02  0.10000000000E-01 0. -1.
</event>
<event>
 7   0  0.6206631E-02  0.9118800E+02  0.7818608E-02  0.1180000E+00
       11   -1    0    0    0    0  0.00000000000E+00  0.00000000000E+00  0.11999999989E+02  0.12000000000E+02  0.51109989000E-03 0. -1.
     -623   -1    0    0    0    0  0.00000000000E+00  0.00000000000E+00  0.42561509872E-11  0.25126700000E+02  0.25126700000E+02 0.  1.
      622    2    1    2    0    0  0.47325480323E-01 -0.59104040290E-02  0.67857958050E+01  0.67869939175E+01  0.11826704648E+00 0.  0.
       11    1    1    2    0    0 -0.51185739549E-01  0.44218309579E-01  0.52125376536E+01  0.52129765288E+01  0.51109989000E-03 0. -1.
     -623    1    1    2    0    0  0.38602592260E-02 -0.38307905550E-01  0.16665304998E-02  0.25126729554E+02  0.25126700000E+02 0.  1.
     -611    1    3    3    0    0  0.80876466846E-01  0.14550888782E-01  0.52936418043E+01  0.52942890253E+01  0.10000000000E-01 0. -1.
      611    1    3    3    0    0 -0.33550986523E-01 -0.20461292811E-01  0.14921540007E+01  0.14927048922E+01  0.10000000000E-01 0.  1.
</event>
<event>
 7   0  0.6206631E-02  0.9118800E+02  0.7818608E-02  0.1180000E+00
       11   -1    0    0    0    0  0.00000000000E+00  0.00000000000E+00  0.11999999989E+02  0.12000000000E+02  0.51109989000E-03 0. -1.
     -623   -1    0    0    0    0  0.00000000000E+00  0.00000000000E+00  0.42561509872E-11  0.25126700000E+02  0.25126700000E+02 0.  1.
      622    2    1    2    0    0 -0.82804794583E-02  0.15213935236E-01  0.93770708410E+01  0.93773234349E+01  0.66612425272E-01 0.  0.
       11    1    1    2    0    0 -0.53267035636E-01  0.45824466426E-01  0.26215854758E+01  0.26225270117E+01  0.51109989000E-03 0. -1.
     -623    1    1    2    0    0  0.61547515095E-01 -0.61038401662E-01  0.13436722685E-02  0.25126849553E+02  0.25126700000E+02 0.  1.
     -611    1    3    3    0    0  0.41241974411E-02  0.38221566992E-01  0.46454516977E+01  0.46456215270E+01  0.10000000000E-01 0.  1.
      611    1    3    3    0    0 -0.12404676899E-01 -0.23007631756E-01  0.47316191434E+01  0.47317019079E+01  0.10000000000E-01 0. -1.
</event>
<event>
 7   0  0.6206631E-02  0.9118800E+02  0.7818608E-02  0.1180000E+00
       11   -1    0    0    0    0  0.00000000000E+00  0.00000000000E+00  0.11999999989E+02  0.12000000000E+02  0.51109989000E-03 0.  1.
     -623   -1    0    0    0    0  0.00000000000E+00  0.00000000000E+00  0.42561509872E-11  0.25126700000E+02  0.25126700000E+02 0.  1.
      622    2    1    2    0    0  0.19645129466E-01  0.96178733885E-02  0.95755805500E+01  0.95761433491E+01  0.10148959145E+00 0.  0.
       11    1    1    2    0    0 -0.21022099192E-01 -0.96860356391E-02  0.24237460321E+01  0.24238566041E+01  0.51109989000E-03 0.  1.
     -623    1    1    2    0    0  0.13769697254E-02  0.68162250606E-04  0.67340701250E-03  0.25126700047E+02  0.25126700000E+02 0.  1.
     -611    1    3    3    0    0  0.36087704995E-01  0.47897143070E-01  0.53392591744E+01  0.53396053216E+01  0.10000000000E-01 0.  1.
      611    1    3    3    0    0 -0.16442575528E-01 -0.38279269682E-01  0.42363213756E+01  0.42365380275E+01  0.10000000000E-01 0. -1.
</event>
<event>
 7   0  0.6206631E-02  0.9118800E+02  0.7818608E-02  0.1180000E+00
       11   -1    0    0    0    0  0.00000000000E+00  0.00000000000E+00  0.11999999989E+02  0.12000000000E+02  0.51109989000E-03 0.  1.
     -623   -1    0    0    0    0  0.00000000000E+00  0.00000000000E+00  0.42561509872E-11  0.25126700000E+02  0.25126700000E+02 0. -1.
      622    2    1    2    0    0  0.55015318906E-02  0.74258132519E-02  0.11905489149E+02  0.11906953384E+02  0.18649823068E+00 0.  0.
       11    1    1    2    0    0 -0.69832500493E-02 -0.19965028315E-02  0.92760612159E-01  0.93045925199E-01  0.51109989000E-03 0.  1.
     -623    1    1    2    0    0  0.14817181587E-02 -0.54293104204E-02  0.17502278686E-02  0.25126700691E+02  0.25126700000E+02 0. -1.
     -611    1    3    3    0    0 -0.63858525780E-01 -0.16904450980E-02  0.99139390169E+01  0.99141498678E+01  0.10000000000E-01 0.  1.
      611    1    3    3    0    0  0.69360057671E-01  0.91162583499E-02  0.19915501321E+01  0.19928035158E+01  0.10000000000E-01 0. -1.
</event>
<event>
 7   0  0.6206631E-02  0.9118800E+02  0.7818608E-02  0.1180000E+00
       11   -1    0    0    0    0  0.00000000000E+00  0.00000000000E+00  0.11999999989E+02  0.12000000000E+02  0.51109989000E-03 0. -1.
     -623   -1    0    0    0    0  0.00000000000E+00  0.00000000000E+00  0.42561509872E-11  0.25126700000E+02  0.25126700000E+02 0.  1.
      622    2    1    2    0    0  0.24150400547E-02 -0.10330493210E-01  0.11947644006E+02  0.11948111904E+02  0.10520564439E+00 0.  0.
       11    1    1    2    0    0 -0.46113329323E-02  0.79834491602E-02  0.51059657425E-01  0.51887856878E-01  0.51109989000E-03 0. -1.
     -623    1    1    2    0    0  0.21962928776E-02  0.23470440502E-02  0.12963257309E-02  0.25126700239E+02  0.25126700000E+02 0.  1.
     -611    1    3    3    0    0  0.19790292598E-01  0.27579573100E-01  0.96668303744E+01  0.96668951466E+01  0.10000000000E-01 0. -1.
      611    1    3    3    0    0 -0.17375252543E-01 -0.37910066311E-01  0.22808136316E+01  0.22812167575E+01  0.10000000000E-01 0. -1.
</event>
<event>
 7   0  0.6206631E-02  0.9118800E+02  0.7818608E-02  0.1180000E+00
       11   -1    0    0    0    0  0.00000000000E+00  0.00000000000E+00  0.11999999989E+02  0.12000000000E+02  0.51109989000E-03 0. -1.
     -623   -1    0    0    0    0  0.00000000000E+00  0.00000000000E+00  0.42561509872E-11  0.25126700000E+02  0.25126700000E+02 0.  1.
      622    2    1    2    0    0 -0.27136490619E-02 -0.27287189925E-02  0.11993199098E+02  0.11993529940E+02  0.89000069668E-01 0.  0.
       11    1    1    2    0    0 -0.30826338167E-02 -0.18423002133E-02  0.53562282288E-02  0.64689338614E-02  0.51109989000E-03 0. -1.
     -623    1    1    2    0    0  0.57962828786E-02  0.45710192058E-02  0.14446628097E-02  0.25126701126E+02  0.25126700000E+02 0.  1.
     -611    1    3    3    0    0  0.58547115480E-02 -0.68455811669E-02  0.28048751541E+00  0.28081023117E+00  0.10000000000E-01 0. -1.
      611    1    3    3    0    0 -0.85683606099E-02  0.41168621744E-02  0.11712711583E+02  0.11712719709E+02  0.10000000000E-01 0. -1.
</event>
<event>
 7   0  0.6206631E-02  0.9118800E+02  0.7818608E-02  0.1180000E+00
       11   -1    0    0    0    0  0.00000000000E+00  0.00000000000E+00  0.11999999989E+02  0.12000000000E+02  0.51109989000E-03 0. -1.
     -623   -1    0    0    0    0  0.00000000000E+00  0.00000000000E+00  0.42561509872E-11  0.25126700000E+02  0.25126700000E+02 0. -1.
      622    2    1    2    0    0  0.00000000000E+00  0.00000000000E+00  0.11997143496E+02  0.11998068605E+02  0.14899052725E+00 0.  0.
       11    1    1    2    0    0  0.14413458805E-02  0.12069838906E-02  0.17442236590E-03  0.19559995790E-02  0.51109989000E-03 0. -1.
     -623    1    1    2    0    0 -0.14413458805E-02 -0.12069838906E-02  0.27068891602E-02  0.25126700216E+02  0.25126700000E+02 0. -1.
     -611    1    3    3    0    0 -0.53603976043E-02 -0.39189044491E-01  0.11017948899E+02  0.11018024435E+02  0.10000000000E-01 0. -1.
      611    1    3    3    0    0  0.53603976043E-02  0.39189044491E-01  0.97919459787E+00  0.98004417022E+00  0.10000000000E-01 0.  1.
</event>
<event>
 7   0  0.6206631E-02  0.9118800E+02  0.7818608E-02  0.1180000E+00
       11   -1    0    0    0    0  0.00000000000E+00  0.00000000000E+00  0.11999999989E+02  0.12000000000E+02  0.51109989000E-03 0.  1.
     -623   -1    0    0    0    0  0.00000000000E+00  0.00000000000E+00  0.42561509872E-11  0.25126700000E+02  0.25126700000E+02 0.  1.
      622    2    1    2    0    0  0.79115224158E-02  0.98559242055E-02  0.11840125258E+02  0.11840640699E+02  0.10975576154E+00 0.  0.
       11    1    1    2    0    0 -0.89255510227E-02 -0.96896486996E-02  0.15881296179E+00  0.15935925706E+00  0.51109989000E-03 0.  1.
     -623    1    1    2    0    0  0.10140286070E-02 -0.16627550590E-03  0.10617697124E-02  0.25126700043E+02  0.25126700000E+02 0.  1.
     -611    1    3    3    0    0  0.32709189384E-01  0.49419209026E-02  0.12423537684E+01  0.12428343412E+01  0.10000000000E-01 0. -1.
      611    1    3    3    0    0 -0.24797666968E-01  0.49140033029E-02  0.10597771489E+02  0.10597806358E+02  0.10000000000E-01 0.  1.
</event>
<event>
 7   0  0.6206631E-02  0.9118800E+02  0.7818608E-02  0.1180000E+00
       11   -1    0    0    0    0  0.00000000000E+00  0.00000000000E+00  0.11999999989E+02  0.12000000000E+02  0.51109989000E-03 0.  1.
     -623   -1    0    0    0    0  0.00000000000E+00  0.00000000000E+00  0.42561509872E-11  0.25126700000E+02  0.25126700000E+02 0.  1.
      622    2    1    2    0    0 -0.85846393543E-02 -0.34761404446E-02  0.11747998807E+02  0.11748044406E+02  0.31394624587E-01 0.  0.
       11    1    1    2    0    0  0.12589182020E-01  0.36408094045E-02  0.25161370125E+00  0.25195527158E+00  0.51109989000E-03 0.  1.
     -623    1    1    2    0    0 -0.40045426655E-02 -0.16466895992E-03  0.38748134094E-03  0.25126700323E+02  0.25126700000E+02 0.  1.
     -611    1    3    3    0    0  0.76193380064E-02  0.10477471122E-02  0.56900605323E+01  0.56900745174E+01  0.10000000000E-01 0.  1.
      611    1    3    3    0    0 -0.16203977361E-01 -0.45238875568E-02  0.60579382742E+01  0.60579698884E+01  0.10000000000E-01 0.  1.
</event>
<event>
 7   0  0.6206631E-02  0.9118800E+02  0.7818608E-02  0.1180000E+00
       11   -1    0    0    0    0  0.00000000000E+00  0.00000000000E+00  0.11999999989E+02  0.12000000000E+02  0.51109989000E-03 0. -1.
     -623   -1    0    0    0    0  0.00000000000E+00  0.00000000000E+00  0.42561509872E-11  0.25126700000E+02  0.25126700000E+02 0. -1.
      622    2    1    2    0    0  0.59572851720E-01  0.32846474656E-01  0.97590450458E+01  0.97609809331E+01  0.18210094748E+00 0.  0.
       11    1    1    2    0    0 -0.56643286504E-01 -0.33941471872E-01  0.22380446843E+01  0.22390187037E+01  0.51109989000E-03 0. -1.
     -623    1    1    2    0    0 -0.29295652163E-02  0.10949972156E-02  0.29102590220E-02  0.25126700363E+02  0.25126700000E+02 0. -1.
     -611    1    3    3    0    0  0.67192554896E-01 -0.61631467537E-01  0.34630556751E+01  0.34642701808E+01  0.10000000000E-01 0.  1.
      611    1    3    3    0    0 -0.76197031754E-02  0.94477942193E-01  0.62959893707E+01  0.62967107523E+01  0.10000000000E-01 0. -1.
</event>
<event>
 7   0  0.6206631E-02  0.9118800E+02  0.7818608E-02  0.1180000E+00
       11   -1    0    0    0    0  0.00000000000E+00  0.00000000000E+00  0.11999999989E+02  0.12000000000E+02  0.51109989000E-03 0.  1.
     -623   -1    0    0    0    0  0.00000000000E+00  0.00000000000E+00  0.42561509872E-11  0.25126700000E+02  0.25126700000E+02 0. -1.
      622    2    1    2    0    0 -0.12023719538E+00 -0.12530371473E+00  0.38303878717E+01  0.38358933366E+01  0.10976537727E+00 0.  0.
       11    1    1    2    0    0  0.11298387634E+00  0.12091738338E+00  0.81624267751E+01  0.81641042062E+01  0.51109989000E-03 0.  1.
     -623    1    1    2    0    0  0.72533190450E-02  0.43863313448E-02  0.71853422826E-02  0.25126702457E+02  0.25126700000E+02 0. -1.
     -611    1    3    3    0    0 -0.81116648083E-01 -0.12976213940E-01  0.12413507275E+01  0.12441060732E+01  0.10000000000E-01 0.  1.
      611    1    3    3    0    0 -0.39120547300E-01 -0.11232750079E+00  0.25890371442E+01  0.25917872634E+01  0.10000000000E-01 0. -1.
</event>
<event>
 7   0  0.6206631E-02  0.9118800E+02  0.7818608E-02  0.1180000E+00
       11   -1    0    0    0    0  0.00000000000E+00  0.00000000000E+00  0.11999999989E+02  0.12000000000E+02  0.51109989000E-03 0.  1.
     -623   -1    0    0    0    0  0.00000000000E+00  0.00000000000E+00  0.42561509872E-11  0.25126700000E+02  0.25126700000E+02 0.  1.
      622    2    1    2    0    0  0.31404024794E-01  0.43863914171E-02  0.10653453483E+02  0.10653906909E+02  0.93036809300E-01 0.  0.
       11    1    1    2    0    0  0.68914569495E-01 -0.14734025347E-01  0.13440442219E+01  0.13458905754E+01  0.51109989000E-03 0.  1.
     -623    1    1    2    0    0 -0.10031859429E+00  0.10347633930E-01  0.25022841133E-02  0.25126902516E+02  0.25126700000E+02 0.  1.
     -611    1    3    3    0    0 -0.85929899358E-02  0.30735808103E-01  0.74935352214E+01  0.74936098540E+01  0.10000000000E-01 0.  1.
      611    1    3    3    0    0  0.39997014730E-01 -0.26349416686E-01  0.31599182617E+01  0.31602970547E+01  0.10000000000E-01 0. -1.
</event>
<event>
 7   0  0.6206631E-02  0.9118800E+02  0.7818608E-02  0.1180000E+00
       11   -1    0    0    0    0  0.00000000000E+00  0.00000000000E+00  0.11999999989E+02  0.12000000000E+02  0.51109989000E-03 0.  1.
     -623   -1    0    0    0    0  0.00000000000E+00  0.00000000000E+00  0.42561509872E-11  0.25126700000E+02  0.25126700000E+02 0.  1.
      622    2    1    2    0    0 -0.34978486833E-02 -0.12345660698E-02  0.11952521993E+02  0.11952926299E+02  0.98241321035E-01 0.  0.
       11    1    1    2    0    0  0.29959950050E-02  0.29018397027E-02  0.46885702148E-01  0.47073633265E-01  0.51109989000E-03 0.  1.
     -623    1    1    2    0    0  0.50185367826E-03 -0.16672736329E-02  0.59229354833E-03  0.25126700067E+02  0.25126700000E+02 0.  1.
     -611    1    3    3    0    0  0.14812113971E-01 -0.12593231482E-01  0.11216059148E+02  0.11216080456E+02  0.10000000000E-01 0.  1.
      611    1    3    3    0    0 -0.18309962655E-01  0.11358665412E-01  0.73646284554E+00  0.73684584336E+00  0.10000000000E-01 0. -1.
</event>
<event>
 7   0  0.6206631E-02  0.9118800E+02  0.7818608E-02  0.1180000E+00
       11   -1    0    0    0    0  0.00000000000E+00  0.00000000000E+00  0.11999999989E+02  0.12000000000E+02  0.51109989000E-03 0.  1.
     -623   -1    0    0    0    0  0.00000000000E+00  0.00000000000E+00  0.42561509872E-11  0.25126700000E+02  0.25126700000E+02 0.  1.
      622    2    1    2    0    0  0.69745494824E-02  0.83000122505E-02  0.10514009166E+02  0.10514146318E+02  0.52597848985E-01 0.  0.
       11    1    1    2    0    0 -0.32526681247E-02 -0.14177634123E-01  0.14857814283E+01  0.14858527178E+01  0.51109989000E-03 0.  1.
     -623    1    1    2    0    0 -0.37218813577E-02  0.58776218724E-02  0.20939530996E-03  0.25126700964E+02  0.25126700000E+02 0.  1.
     -611    1    3    3    0    0 -0.19826658667E-01  0.97551408821E-02  0.39292254083E+01  0.39293002645E+01  0.10000000000E-01 0. -1.
      611    1    3    3    0    0  0.26801208149E-01 -0.14551286316E-02  0.65847837573E+01  0.65848460538E+01  0.10000000000E-01 0.  1.
</event>
<event>
 7   0  0.6206631E-02  0.9118800E+02  0.7818608E-02  0.1180000E+00
       11   -1    0    0    0    0  0.00000000000E+00  0.00000000000E+00  0.11999999989E+02  0.12000000000E+02  0.51109989000E-03 0.  1.
     -623   -1    0    0    0    0  0.00000000000E+00  0.00000000000E+00  0.42561509872E-11  0.25126700000E+02  0.25126700000E+02 0. -1.
      622    2    1    2    0    0 -0.39510100624E-01  0.19511319773E-01  0.11508226426E+02  0.11509264048E+02  0.14812729486E+00 0.  0.
       11    1    1    2    0    0  0.22412534197E-01  0.45636299606E-02  0.49018495211E+00  0.49071855162E+00  0.51109989000E-03 0.  1.
     -623    1    1    2    0    0  0.17097566427E-01 -0.24074949733E-01  0.15886106700E-02  0.25126717401E+02  0.25126700000E+02 0. -1.
     -611    1    3    3    0    0 -0.51495315946E-01  0.76509963866E-01  0.80272594493E+01  0.80277954513E+01  0.10000000000E-01 0.  1.
      611    1    3    3    0    0  0.11985215322E-01 -0.56998644093E-01  0.34809669771E+01  0.34814685962E+01  0.10000000000E-01 0. -1.
</event>
<event>
 7   0  0.6206631E-02  0.9118800E+02  0.7818608E-02  0.1180000E+00
       11   -1    0    0    0    0  0.00000000000E+00  0.00000000000E+00  0.11999999989E+02  0.12000000000E+02  0.51109989000E-03 0.  1.
     -623   -1    0    0    0    0  0.00000000000E+00  0.00000000000E+00  0.42561509872E-11  0.25126700000E+02  0.25126700000E+02 0.  1.
      622    2    1    2    0    0  0.68938970852E-02 -0.46256101027E-02  0.11792945000E+02  0.11793574622E+02  0.12157987798E+00 0.  0.
       11    1    1    2    0    0 -0.44944458529E-02  0.65074096337E-02  0.20627299257E+00  0.20642518042E+00  0.51109989000E-03 0.  1.
     -623    1    1    2    0    0 -0.23994512324E-02 -0.18817995309E-02  0.78199604894E-03  0.25126700197E+02  0.25126700000E+02 0.  1.
     -611    1    3    3    0    0  0.26834904450E-01  0.39441703949E-01  0.93672624292E+01  0.93673892402E+01  0.10000000000E-01 0.  1.
      611    1    3    3    0    0 -0.19941007365E-01 -0.44067314051E-01  0.24256825713E+01  0.24261853822E+01  0.10000000000E-01 0. -1.
</event>
<event>
 7   0  0.6206631E-02  0.9118800E+02  0.7818608E-02  0.1180000E+00
       11   -1    0    0    0    0  0.00000000000E+00  0.00000000000E+00  0.11999999989E+02  0.12000000000E+02  0.51109989000E-03 0. -1.
     -623   -1    0    0    0    0  0.00000000000E+00  0.00000000000E+00  0.42561509872E-11  0.25126700000E+02  0.25126700000E+02 0.  1.
      622    2    1    2    0    0  0.23855471022E-01 -0.20456137182E-02  0.90291459620E+01  0.90298287665E+01  0.10843191765E+00 0.  0.
       11    1    1    2    0    0 -0.21322562487E-01  0.35476715636E-02  0.29700923494E+01  0.29701710494E+01  0.51109989000E-03 0. -1.
     -623    1    1    2    0    0 -0.25329085344E-02 -0.15020578454E-02  0.76167772648E-03  0.25126700184E+02  0.25126700000E+02 0.  1.
     -611    1    3    3    0    0  0.62926957968E-01  0.13475482040E-01  0.44129827288E+01  0.44134632609E+01  0.10000000000E-01 0.  1.
      611    1    3    3    0    0 -0.39071486946E-01 -0.15521095759E-01  0.46161632332E+01  0.46163655056E+01  0.10000000000E-01 0. -1.
</event>
<event>
 7   0  0.6206631E-02  0.9118800E+02  0.7818608E-02  0.1180000E+00
       11   -1    0    0    0    0  0.00000000000E+00  0.00000000000E+00  0.11999999989E+02  0.12000000000E+02  0.51109989000E-03 0.  1.
     -623   -1    0    0    0    0  0.00000000000E+00  0.00000000000E+00  0.42561509872E-11  0.25126700000E+02  0.25126700000E+02 0. -1.
      622    2    1    2    0    0 -0.12960836408E-01  0.24806023425E-01  0.11402125492E+02  0.11402461874E+02  0.82992434974E-01 0.  0.
       11    1    1    2    0    0  0.82467423589E-02 -0.20825647099E-01  0.59711717051E+00  0.59753735689E+00  0.51109989000E-03 0.  1.
     -623    1    1    2    0    0  0.47140940488E-02 -0.39803763266E-02  0.75732699228E-03  0.25126700769E+02  0.25126700000E+02 0. -1.
     -611    1    3    3    0    0 -0.18230235341E-01  0.94636147051E-02  0.10820798284E+02  0.10820822400E+02  0.10000000000E-01 0.  1.
      611    1    3    3    0    0  0.52693989336E-02  0.15342408720E-01  0.58132720737E+00  0.58163947433E+00  0.10000000000E-01 0.  1.
</event>
<event>
 7   0  0.6206631E-02  0.9118800E+02  0.7818608E-02  0.1180000E+00
       11   -1    0    0    0    0  0.00000000000E+00  0.00000000000E+00  0.11999999989E+02  0.12000000000E+02  0.51109989000E-03 0.  1.
     -623   -1    0    0    0    0  0.00000000000E+00  0.00000000000E+00  0.42561509872E-11  0.25126700000E+02  0.25126700000E+02 0. -1.
      622    2    1    2    0    0 -0.12193130705E-01 -0.26643748351E-01  0.11695083916E+02  0.11695348894E+02  0.73071035646E-01 0.  0.
       11    1    1    2    0    0  0.26352279620E-01  0.41612176594E-02  0.30346613020E+00  0.30463701642E+00  0.51109989000E-03 0.  1.
     -623    1    1    2    0    0 -0.14159148916E-01  0.22482530691E-01  0.14499423768E-02  0.25126714090E+02  0.25126700000E+02 0. -1.
     -611    1    3    3    0    0  0.15898864433E-01 -0.11996144724E-02  0.85499000076E+01  0.85499207220E+01  0.10000000000E-01 0.  1.
      611    1    3    3    0    0 -0.28091995138E-01 -0.25444133878E-01  0.31451839089E+01  0.31454281720E+01  0.10000000000E-01 0.  1.
</event>
<event>
 6   0  0.6206631E-02  0.9118800E+02  0.7818608E-02  0.1180000E+00
       11   -1    0    0    0    0  0.00000000000E+00  0.00000000000E+00  0.11999999989E+02  0.12000000000E+02  0.51109989000E-03 0.  1.
     -623   -1    0    0    0    0  0.00000000000E+00  0.00000000000E+00  0.42561509872E-11  0.25126700000E+02  0.25126700000E+02 0. -1.
       11    1    1    2    0    0  0.21614739835E-01 -0.54230674806E-01  0.74430050426E+00  0.74658667610E+00  0.51109989000E-03 0.  1.
     -623    1    1    2    0    0  0.61790345859E-01  0.47516142133E-01  0.52993846928E-02  0.25126821462E+02  0.25126700000E+02 0. -1.
     -611    1    1    2    0    0 -0.12576775933E+00 -0.47083611494E-01  0.10047804209E+02  0.10048706574E+02  0.10000000000E-01 0.  1.
      611    1    1    2    0    0  0.42362673634E-01  0.53798144167E-01  0.12025958913E+01  0.12045852872E+01  0.10000000000E-01 0. -1.
</event>
<event>
 7   0  0.6206631E-02  0.9118800E+02  0.7818608E-02  0.1180000E+00
       11   -1    0    0    0    0  0.00000000000E+00  0.00000000000E+00  0.11999999989E+02  0.12000000000E+02  0.51109989000E-03 0. -1.
     -623   -1    0    0    0    0  0.00000000000E+00  0.00000000000E+00  0.42561509872E-11  0.25126700000E+02  0.25126700000E+02 0.  1.
      622    2    1    2    0    0 -0.12378238997E-01  0.55976639048E-02  0.11921271572E+02  0.11921667628E+02  0.96221518701E-01 0.  0.
       11    1    1    2    0    0  0.79888935062E-02 -0.83162246782E-02  0.77476637019E-01  0.78331810392E-01  0.51109989000E-03 0. -1.
     -623    1    1    2    0    0  0.43893454904E-02  0.27185607733E-02  0.12517799637E-02  0.25126700562E+02  0.25126700000E+02 0.  1.
     -611    1    3    3    0    0  0.61662017580E-02  0.48161537221E-01  0.63704577845E+01  0.63706506685E+01  0.10000000000E-01 0.  1.
      611    1    3    3    0    0 -0.18544440755E-01 -0.42563873316E-01  0.55508137876E+01  0.55510169595E+01  0.10000000000E-01 0. -1.
</event>
<event>
 7   0  0.6206631E-02  0.9118800E+02  0.7818608E-02  0.1180000E+00
       11   -1    0    0    0    0  0.00000000000E+00  0.00000000000E+00  0.11999999989E+02  0.12000000000E+02  0.51109989000E-03 0.  1.
     -623   -1    0    0    0    0  0.00000000000E+00  0.00000000000E+00  0.42561509872E-11  0.25126700000E+02  0.25126700000E+02 0. -1.
      622    2    1    2    0    0 -0.30569126845E-02 -0.23140629053E-01  0.11922284179E+02  0.11922717398E+02  0.98920598810E-01 0.  0.
       11    1    1    2    0    0 -0.27412501841E-01  0.96490987707E-02  0.71583926682E-01  0.77259757614E-01  0.51109989000E-03 0.  1.
     -623    1    1    2    0    0  0.30469414525E-01  0.13491530283E-01  0.61318838418E-02  0.25126722844E+02  0.25126700000E+02 0. -1.
     -611    1    3    3    0    0 -0.16467241660E-02  0.26864410215E-01  0.85423103899E+01  0.85423586442E+01  0.10000000000E-01 0.  1.
      611    1    3    3    0    0 -0.14101885185E-02 -0.50005039268E-01  0.33799737887E+01  0.33803587539E+01  0.10000000000E-01 0. -1.
</event>
<event>
 7   0  0.6206631E-02  0.9118800E+02  0.7818608E-02  0.1180000E+00
       11   -1    0    0    0    0  0.00000000000E+00  0.00000000000E+00  0.11999999989E+02  0.12000000000E+02  0.51109989000E-03 0. -1.
     -623   -1    0    0    0    0  0.00000000000E+00  0.00000000000E+00  0.42561509872E-11  0.25126700000E+02  0.25126700000E+02 0.  1.
      622    2    1    2    0    0 -0.11196601714E-01  0.21223842718E-01  0.11741304191E+02  0.11741821101E+02  0.10753067736E+00 0.  0.
       11    1    1    2    0    0  0.24928282548E-01 -0.84578147775E-02  0.25682577914E+00  0.25817183416E+00  0.51109989000E-03 0. -1.
     -623    1    1    2    0    0 -0.13731680835E-01 -0.12766027940E-01  0.18700188747E-02  0.25126707065E+02  0.25126700000E+02 0.  1.
     -611    1    3    3    0    0  0.28353234845E-02 -0.12895338179E-02  0.10956503318E+02  0.10956508324E+02  0.10000000000E-01 0. -1.
      611    1    3    3    0    0 -0.14031925198E-01  0.22513376536E-01  0.78480087358E+00  0.78531277731E+00  0.10000000000E-01 0. -1.
</event>
<event>
 7   0  0.6206631E-02  0.9118800E+02  0.7818608E-02  0.1180000E+00
       11   -1    0    0    0    0  0.00000000000E+00  0.00000000000E+00  0.11999999989E+02  0.12000000000E+02  0.51109989000E-03 0. -1.
     -623   -1    0    0    0    0  0.00000000000E+00  0.00000000000E+00  0.42561509872E-11  0.25126700000E+02  0.25126700000E+02 0. -1.
      622    2    1    2    0    0 -0.10594429234E-02 -0.11280254398E-02  0.11997589012E+02  0.11997935832E+02  0.91212517081E-01 0.  0.
       11    1    1    2    0    0  0.11089475644E-03  0.98395600193E-03  0.17375233899E-02  0.20641409094E-02  0.51109989000E-03 0. -1.
     -623    1    1    2    0    0  0.94854816700E-03  0.14406943786E-03  0.67345357358E-03  0.25126700027E+02  0.25126700000E+02 0. -1.
     -611    1    3    3    0    0  0.11295025616E-01 -0.33062734026E-01  0.97161471210E+01  0.97162150861E+01  0.10000000000E-01 0. -1.
      611    1    3    3    0    0 -0.12354468539E-01  0.31934708587E-01  0.22814418912E+01  0.22817207457E+01  0.10000000000E-01 0.  1.
</event>
<event>
 7   0  0.6206631E-02  0.9118800E+02  0.7818608E-02  0.1180000E+00
       11   -1    0    0    0    0  0.00000000000E+00  0.00000000000E+00  0.11999999989E+02  0.12000000000E+02  0.51109989000E-03 0. -1.
     -623   -1    0    0    0    0  0.00000000000E+00  0.00000000000E+00  0.42561509872E-11  0.25126700000E+02  0.25126700000E+02 0. -1.
      622    2    1    2    0    0 -0.14554539990E-01 -0.45031164946E-02  0.10232098769E+02  0.10232580665E+02  0.98131134387E-01 0.  0.
       11    1    1    2    0    0 -0.28434065573E-02  0.15228104931E-01  0.17673430515E+01  0.17674110170E+01  0.51109989000E-03 0. -1.
     -623    1    1    2    0    0  0.17397946547E-01 -0.10724988437E-01  0.55816825120E-03  0.25126708318E+02  0.25126700000E+02 0. -1.
     -611    1    3    3    0    0 -0.44530555837E-01  0.20930716293E-01  0.76353250693E+01  0.76354901597E+01  0.10000000000E-01 0. -1.
      611    1    3    3    0    0  0.29976015848E-01 -0.25433832788E-01  0.25967737001E+01  0.25970905050E+01  0.10000000000E-01 0.  1.
</event>
<event>
 7   0  0.6206631E-02  0.9118800E+02  0.7818608E-02  0.1180000E+00
       11   -1    0    0    0    0  0.00000000000E+00  0.00000000000E+00  0.11999999989E+02  0.12000000000E+02  0.51109989000E-03 0. -1.
     -623   -1    0    0    0    0  0.00000000000E+00  0.00000000000E+00  0.42561509872E-11  0.25126700000E+02  0.25126700000E+02 0.  1.
      622    2    1    2    0    0  0.50531923750E-02  0.61814609650E-02  0.11781522515E+02  0.11781982931E+02  0.10385215699E+00 0.  0.
       11    1    1    2    0    0 -0.58720025489E-02  0.24678150652E-02  0.21792189652E+00  0.21801556076E+00  0.51109989000E-03 0. -1.
     -623    1    1    2    0    0  0.81881017384E-03 -0.86492760302E-02  0.55557752716E-03  0.25126701508E+02  0.25126700000E+02 0.  1.
     -611    1    3    3    0    0 -0.46245186385E-01  0.49648533597E-02  0.39609682452E+01  0.39612539310E+01  0.10000000000E-01 0. -1.
      611    1    3    3    0    0  0.51298378760E-01  0.12166076054E-02  0.78205542699E+01  0.78207290000E+01  0.10000000000E-01 0.  1.
</event>
<event>
 7   0  0.6206631E-02  0.9118800E+02  0.7818608E-02  0.1180000E+00
       11   -1    0    0    0    0  0.00000000000E+00  0.00000000000E+00  0.11999999989E+02  0.12000000000E+02  0.51109989000E-03 0. -1.
     -623   -1    0    0    0    0  0.00000000000E+00  0.00000000000E+00  0.42561509872E-11  0.25126700000E+02  0.25126700000E+02 0.  1.
      622    2    1    2    0    0 -0.11368675595E-02 -0.75923277594E-02  0.11974965324E+02  0.11975522326E+02  0.11524552047E+00 0.  0.
       11    1    1    2    0    0 -0.16349053295E-02  0.87812067368E-02  0.22783743995E-01  0.24477392033E-01  0.51109989000E-03 0. -1.
     -623    1    1    2    0    0  0.27717728890E-02 -0.11888789774E-02  0.22509208342E-02  0.25126700282E+02  0.25126700000E+02 0.  1.
     -611    1    3    3    0    0 -0.30514871503E-01  0.63827336725E-02  0.10633009984E+01  0.10638049209E+01  0.10000000000E-01 0.  1.
      611    1    3    3    0    0  0.29378003943E-01 -0.13975061432E-01  0.10911664326E+02  0.10911717405E+02  0.10000000000E-01 0. -1.
</event>
<event>
 7   0  0.6206631E-02  0.9118800E+02  0.7818608E-02  0.1180000E+00
       11   -1    0    0    0    0  0.00000000000E+00  0.00000000000E+00  0.11999999989E+02  0.12000000000E+02  0.51109989000E-03 0.  1.
     -623   -1    0    0    0    0  0.00000000000E+00  0.00000000000E+00  0.42561509872E-11  0.25126700000E+02  0.25126700000E+02 0. -1.
      622    2    1    2    0    0  0.35061179926E-01 -0.45659130851E-02  0.10578649971E+02  0.10579191133E+02  0.10099347879E+00 0.  0.
       11    1    1    2    0    0 -0.36754572825E-01  0.23693925241E-02  0.14203311474E+01  0.14208086930E+01  0.51109989000E-03 0.  1.
     -623    1    1    2    0    0  0.16933928986E-02  0.21965205610E-02  0.10188703210E-02  0.25126700174E+02  0.25126700000E+02 0. -1.
     -611    1    3    3    0    0  0.58497077686E-01  0.28024778004E-01  0.64396354094E+01  0.64399698371E+01  0.10000000000E-01 0. -1.
      611    1    3    3    0    0 -0.23435897759E-01 -0.32590691089E-01  0.41390145619E+01  0.41392212961E+01  0.10000000000E-01 0.  1.
</event>
<event>
 6   0  0.6206631E-02  0.9118800E+02  0.7818608E-02  0.1180000E+00
       11   -1    0    0    0    0  0.00000000000E+00  0.00000000000E+00  0.11999999989E+02  0.12000000000E+02  0.51109989000E-03 0.  1.
     -623   -1    0    0    0    0  0.00000000000E+00  0.00000000000E+00  0.42561509872E-11  0.25126700000E+02  0.25126700000E+02 0. -1.
       11    1    1    2    0    0 -0.54561173275E-03  0.23166325374E-02  0.70694483284E-02  0.74768175895E-02  0.51109989000E-03 0.  1.
     -623    1    1    2    0    0  0.39942296127E-02  0.65568288196E-02  0.21860527272E-02  0.25126701268E+02  0.25126700000E+02 0. -1.
     -611    1    1    2    0    0  0.84359481496E-01  0.49845848356E-01  0.49722374482E+01  0.49732128822E+01  0.10000000000E-01 0. -1.
      611    1    1    2    0    0 -0.87808099376E-01 -0.58719309713E-01  0.70185070399E+01  0.70193090321E+01  0.10000000000E-01 0.  1.
</event>
<event>
 7   0  0.6206631E-02  0.9118800E+02  0.7818608E-02  0.1180000E+00
       11   -1    0    0    0    0  0.00000000000E+00  0.00000000000E+00  0.11999999989E+02  0.12000000000E+02  0.51109989000E-03 0. -1.
     -623   -1    0    0    0    0  0.00000000000E+00  0.00000000000E+00  0.42561509872E-11  0.25126700000E+02  0.25126700000E+02 0.  1.
      622    2    1    2    0    0  0.61407380305E-02  0.21957223148E-01  0.97401011644E+01  0.97404406253E+01  0.78058016792E-01 0.  0.
       11    1    1    2    0    0  0.79186552639E-02 -0.23816468901E-01  0.22594159135E+01  0.22595553679E+01  0.51109989000E-03 0. -1.
     -623    1    1    2    0    0 -0.14059393294E-01  0.18592457528E-02  0.48291126548E-03  0.25126704007E+02  0.25126700000E+02 0.  1.
     -611    1    3    3    0    0  0.24918928087E-01  0.28915815535E-01  0.87396634462E+01  0.87397525269E+01  0.10000000000E-01 0. -1.
      611    1    3    3    0    0 -0.18778190056E-01 -0.69585923869E-02  0.10004377181E+01  0.10006880984E+01  0.10000000000E-01 0.  1.
</event>
<event>
 7   0  0.6206631E-02  0.9118800E+02  0.7818608E-02  0.1180000E+00
       11   -1    0    0    0    0  0.00000000000E+00  0.00000000000E+00  0.11999999989E+02  0.12000000000E+02  0.51109989000E-03 0. -1.
     -623   -1    0    0    0    0  0.00000000000E+00  0.00000000000E+00  0.42561509872E-11  0.25126700000E+02  0.25126700000E+02 0. -1.
      622    2    1    2    0    0 -0.18121407644E-01  0.43242604715E-01  0.65157663925E+01  0.65163321681E+01  0.71937020618E-01 0.  0.
       11    1    1    2    0    0  0.24737280487E-01 -0.39924481241E-01  0.54834655692E+01  0.54836667301E+01  0.51109989000E-03 0. -1.
     -623    1    1    2    0    0 -0.66158728432E-02 -0.33181234739E-02  0.76802743903E-03  0.25126701102E+02  0.25126700000E+02 0. -1.
     -611    1    3    3    0    0 -0.34382965348E-01 -0.22026663599E-02  0.31631161371E+01  0.31633195755E+01  0.10000000000E-01 0.  1.
      611    1    3    3    0    0  0.16261557704E-01  0.45445271075E-01  0.33526502554E+01  0.33530125926E+01  0.10000000000E-01 0. -1.
</event>
<event>
 7   0  0.6206631E-02  0.9118800E+02  0.7818608E-02  0.1180000E+00
       11   -1    0    0    0    0  0.00000000000E+00  0.00000000000E+00  0.11999999989E+02  0.12000000000E+02  0.51109989000E-03 0.  1.
     -623   -1    0    0    0    0  0.00000000000E+00  0.00000000000E+00  0.42561509872E-11  0.25126700000E+02  0.25126700000E+02 0.  1.
      622    2    1    2    0    0  0.35944735097E-02  0.10344665171E-01  0.11928893075E+02  0.11929435006E+02  0.11317960671E+00 0.  0.
       11    1    1    2    0    0  0.38033306126E-03 -0.39019266510E-02  0.70453001268E-01  0.70563845528E-01  0.51109989000E-03 0.  1.
     -623    1    1    2    0    0 -0.39748065709E-02 -0.64427385201E-02  0.65391277003E-03  0.25126701149E+02  0.25126700000E+02 0.  1.
     -611    1    3    3    0    0  0.39454273532E-01 -0.24812747723E-01  0.28588333032E+01  0.28592306951E+01  0.10000000000E-01 0.  1.
      611    1    3    3    0    0 -0.35859800022E-01  0.35157412894E-01  0.90700597718E+01  0.90702043105E+01  0.10000000000E-01 0.  1.
</event>
<event>
 7   0  0.6206631E-02  0.9118800E+02  0.7818608E-02  0.1180000E+00
       11   -1    0    0    0    0  0.00000000000E+00  0.00000000000E+00  0.11999999989E+02  0.12000000000E+02  0.51109989000E-03 0. -1.
     -623   -1    0    0    0    0  0.00000000000E+00  0.00000000000E+00  0.42561509872E-11  0.25126700000E+02  0.25126700000E+02 0. -1.
      622    2    1    2    0    0  0.14198698422E-01  0.31088904843E-02  0.99719600156E+01  0.99724308309E+01  0.95806343513E-01 0.  0.
       11    1    1    2    0    0  0.29999360896E-02 -0.20387557886E-01  0.20274525480E+01  0.20275573352E+01  0.51109989000E-03 0. -1.
     -623    1    1    2    0    0 -0.17198634511E-01  0.17278667402E-01  0.58742547422E-03  0.25126711834E+02  0.25126700000E+02 0. -1.
     -611    1    3    3    0    0 -0.15232929708E-01  0.78016614786E-02  0.46885657487E+00  0.46927539449E+00  0.10000000000E-01 0.  1.
      611    1    3    3    0    0  0.29431628130E-01 -0.46927709942E-02  0.95031034408E+01  0.95031554364E+01  0.10000000000E-01 0. -1.
</event>
<event>
 7   0  0.6206631E-02  0.9118800E+02  0.7818608E-02  0.1180000E+00
       11   -1    0    0    0    0  0.00000000000E+00  0.00000000000E+00  0.11999999989E+02  0.12000000000E+02  0.51109989000E-03 0. -1.
     -623   -1    0    0    0    0  0.00000000000E+00  0.00000000000E+00  0.42561509872E-11  0.25126700000E+02  0.25126700000E+02 0. -1.
      622    2    1    2    0    0 -0.51128202387E-02 -0.53786962252E-02  0.11712820181E+02  0.11713272168E+02  0.10263154196E+00 0.  0.
       11    1    1    2    0    0  0.80326174494E-02  0.48096643028E-02  0.28657429618E+00  0.28672764824E+00  0.51109989000E-03 0. -1.
     -623    1    1    2    0    0 -0.29197972107E-02  0.56903192249E-03  0.60551223048E-03  0.25126700183E+02  0.25126700000E+02 0. -1.
     -611    1    3    3    0    0  0.34985919232E-01  0.63528457252E-02  0.92746200935E+01  0.92746936473E+01  0.10000000000E-01 0. -1.
      611    1    3    3    0    0 -0.40098739471E-01 -0.11731541950E-01  0.24382000872E+01  0.24385785210E+01  0.10000000000E-01 0. -1.
</event>
<event>
 7   0  0.6206631E-02  0.9118800E+02  0.7818608E-02  0.1180000E+00
       11   -1    0    0    0    0  0.00000000000E+00  0.00000000000E+00  0.11999999989E+02  0.12000000000E+02  0.51109989000E-03 0. -1.
     -623   -1    0    0    0    0  0.00000000000E+00  0.00000000000E+00  0.42561509872E-11  0.25126700000E+02  0.25126700000E+02 0.  1.
      622    2    1    2    0    0  0.74562761407E-01  0.47377108808E-02  0.63220727298E+01  0.63233652127E+01  0.10373986797E+00 0.  0.
       11    1    1    2    0    0 -0.87804398806E-01 -0.23256590395E-02  0.56759514988E+01  0.56766311047E+01  0.51109989000E-03 0. -1.
     -623    1    1    2    0    0  0.13241637399E-01 -0.24120518413E-02  0.19757604660E-02  0.25126703683E+02  0.25126700000E+02 0.  1.
     -611    1    3    3    0    0  0.44686257246E-01  0.25011549901E-01  0.11768634302E+01  0.11780195128E+01  0.10000000000E-01 0.  1.
      611    1    3    3    0    0  0.29876504161E-01 -0.20273839020E-01  0.51452092996E+01  0.51453456998E+01  0.10000000000E-01 0. -1.
</event>
<event>
 7   0  0.6206631E-02  0.9118800E+02  0.7818608E-02  0.1180000E+00
       11   -1    0    0    0    0  0.00000000000E+00  0.00000000000E+00  0.11999999989E+02  0.12000000000E+02  0.51109989000E-03 0. -1.
     -623   -1    0    0    0    0  0.00000000000E+00  0.00000000000E+00  0.42561509872E-11  0.25126700000E+02  0.25126700000E+02 0. -1.
      622    2    1    2    0    0  0.33843527071E-02  0.25093613003E-01  0.11740034152E+02  0.11740442210E+02  0.94552803729E-01 0.  0.
       11    1    1    2    0    0  0.51437860776E-02 -0.20128599228E-01  0.25872252391E+00  0.25955582183E+00  0.51109989000E-03 0. -1.
     -623    1    1    2    0    0 -0.85281387847E-02 -0.49650137755E-02  0.12433127223E-02  0.25126701969E+02  0.25126700000E+02 0. -1.
     -611    1    3    3    0    0 -0.97932750779E-02 -0.66535242042E-02  0.34113638781E+00  0.34148823217E+00  0.10000000000E-01 0. -1.
      611    1    3    3    0    0  0.13177627785E-01  0.31747137208E-01  0.11398897765E+02  0.11398953977E+02  0.10000000000E-01 0. -1.
</event>
<event>
 7   0  0.6206631E-02  0.9118800E+02  0.7818608E-02  0.1180000E+00
       11   -1    0    0    0    0  0.00000000000E+00  0.00000000000E+00  0.11999999989E+02  0.12000000000E+02  0.51109989000E-03 0. -1.
     -623   -1    0    0    0    0  0.00000000000E+00  0.00000000000E+00  0.42561509872E-11  0.25126700000E+02  0.25126700000E+02 0.  1.
      622    2    1    2    0    0 -0.17844778950E-02  0.10828761866E-01  0.11076273688E+02  0.11076464199E+02  0.64030536457E-01 0.  0.
       11    1    1    2    0    0  0.50667597830E-02 -0.43093709406E-02  0.92351064483E+00  0.92353473951E+00  0.51109989000E-03 0. -1.
     -623    1    1    2    0    0 -0.32822818880E-02 -0.65193909251E-02  0.21565657595E-03  0.25126701061E+02  0.25126700000E+02 0.  1.
     -611    1    3    3    0    0 -0.98113824173E-02  0.29149606990E-01  0.33026945070E+01  0.33028528532E+01  0.10000000000E-01 0.  1.
      611    1    3    3    0    0  0.80269045223E-02 -0.18320845124E-01  0.77735791806E+01  0.77736113462E+01  0.10000000000E-01 0. -1.
</event>
<event>
 7   0  0.6206631E-02  0.9118800E+02  0.7818608E-02  0.1180000E+00
       11   -1    0    0    0    0  0.00000000000E+00  0.00000000000E+00  0.11999999989E+02  0.12000000000E+02  0.51109989000E-03 0. -1.
     -623   -1    0    0    0    0  0.00000000000E+00  0.00000000000E+00  0.42561509872E-11  0.25126700000E+02  0.25126700000E+02 0. -1.
      622    2    1    2    0    0 -0.31853880856E-02  0.59302787220E-02  0.10742482633E+02  0.10742953342E+02  0.10033980093E+00 0.  0.
       11    1    1    2    0    0  0.17534762721E-02 -0.83160737512E-02  0.12570176642E+01  0.12570464992E+01  0.51109989000E-03 0. -1.
     -623    1    1    2    0    0  0.14319118135E-02  0.23857950291E-02  0.49969224858E-03  0.25126700159E+02  0.25126700000E+02 0. -1.
     -611    1    3    3    0    0  0.46664319790E-01  0.12342255195E-01  0.51451852538E+01  0.51454213807E+01  0.10000000000E-01 0.  1.
      611    1    3    3    0    0 -0.49849707875E-01 -0.64119764730E-02  0.55972973789E+01  0.55975319610E+01  0.10000000000E-01 0. -1.
</event>
<event>
 7   0  0.6206631E-02  0.9118800E+02  0.7818608E-02  0.1180000E+00
       11   -1    0    0    0    0  0.00000000000E+00  0.00000000000E+00  0.11999999989E+02  0.12000000000E+02  0.51109989000E-03 0. -1.
     -623   -1    0    0    0    0  0.00000000000E+00  0.00000000000E+00  0.42561509872E-11  0.25126700000E+02  0.25126700000E+02 0. -1.
      622    2    1    2    0    0 -0.22746423748E-01 -0.13892266905E-01  0.94477544859E+01  0.94483148123E+01  0.99385972249E-01 0.  0.
       11    1    1    2    0    0  0.13856063031E-01  0.40546397677E-01  0.25513096191E+01  0.25516694603E+01  0.51109989000E-03 0. -1.
     -623    1    1    2    0    0  0.88903607174E-02 -0.26654130772E-01  0.93588413422E-03  0.25126715727E+02  0.25126700000E+02 0. -1.
     -611    1    3    3    0    0 -0.37310004628E-01 -0.14156981420E-01  0.91141034967E+01  0.91141963444E+01  0.10000000000E-01 0. -1.
      611    1    3    3    0    0  0.14563580880E-01  0.26471451512E-03  0.33365098923E+00  0.33411846787E+00  0.10000000000E-01 0.  1.
</event>
<event>
 7   0  0.6206631E-02  0.9118800E+02  0.7818608E-02  0.1180000E+00
       11   -1    0    0    0    0  0.00000000000E+00  0.00000000000E+00  0.11999999989E+02  0.12000000000E+02  0.51109989000E-03 0. -1.
     -623   -1    0    0    0    0  0.00000000000E+00  0.00000000000E+00  0.42561509872E-11  0.25126700000E+02  0.25126700000E+02 0.  1.
      622    2    1    2    0    0 -0.30176364566E-02 -0.52081677116E-02  0.11804025706E+02  0.11804103561E+02  0.42447371385E-01 0.  0.
       11    1    1    2    0    0 -0.13779819768E-01  0.17041242289E-01  0.19465754897E+00  0.19588800362E+00  0.51109989000E-03 0. -1.
     -623    1    1    2    0    0  0.16797456225E-01 -0.11833074578E-01  0.13167342082E-02  0.25126708435E+02  0.25126700000E+02 0.  1.
     -611    1    3    3    0    0 -0.10910175819E-01 -0.34751136124E-02  0.16576193352E+01  0.16576890446E+01  0.10000000000E-01 0.  1.
      611    1    3    3    0    0  0.78925393628E-02 -0.17330540992E-02  0.10146406371E+02  0.10146414516E+02  0.10000000000E-01 0. -1.
</event>
<event>
 7   0  0.6206631E-02  0.9118800E+02  0.7818608E-02  0.1180000E+00
       11   -1    0    0    0    0  0.00000000000E+00  0.00000000000E+00  0.11999999989E+02  0.12000000000E+02  0.51109989000E-03 0.  1.
     -623   -1    0    0    0    0  0.00000000000E+00  0.00000000000E+00  0.42561509872E-11  0.25126700000E+02  0.25126700000E+02 0.  1.
      622    2    1    2    0    0  0.58171457796E-04  0.22196893978E-02  0.11973029374E+02  0.11973254649E+02  0.73413671780E-01 0.  0.
       11    1    1    2    0    0 -0.14761137018E-02 -0.30951392580E-02  0.26519626847E-01  0.26745291734E-01  0.51109989000E-03 0.  1.
     -623    1    1    2    0    0  0.14179422440E-02  0.87544986019E-03  0.45098825050E-03  0.25126700059E+02  0.25126700000E+02 0.  1.
     -611    1    3    3    0    0 -0.14282241503E-01  0.18378562122E-01  0.16213110093E+01  0.16215089093E+01  0.10000000000E-01 0. -1.
      611    1    3    3    0    0  0.14340412960E-01 -0.16158872724E-01  0.10351718365E+02  0.10351745740E+02  0.10000000000E-01 0.  1.
</event>
<event>
 7   0  0.6206631E-02  0.9118800E+02  0.7818608E-02  0.1180000E+00
       11   -1    0    0    0    0  0.00000000000E+00  0.00000000000E+00  0.11999999989E+02  0.12000000000E+02  0.51109989000E-03 0. -1.
     -623   -1    0    0    0    0  0.00000000000E+00  0.00000000000E+00  0.42561509872E-11  0.25126700000E+02  0.25126700000E+02 0. -1.
      622    2    1    2    0    0  0.29698067855E-02 -0.49421749603E-02  0.11666957198E+02  0.11667325045E+02  0.92467295826E-01 0.  0.
       11    1    1    2    0    0 -0.56162769032E-02  0.76369044233E-02  0.33253918176E+00  0.33267466616E+00  0.51109989000E-03 0. -1.
     -623    1    1    2    0    0  0.26464701177E-02 -0.26947294629E-02  0.50360943154E-03  0.25126700289E+02  0.25126700000E+02 0. -1.
     -611    1    3    3    0    0  0.20703924372E-01 -0.20103045939E-01  0.13857986038E+01  0.13861351143E+01  0.10000000000E-01 0.  1.
      611    1    3    3    0    0 -0.17734117587E-01  0.15160870979E-01  0.10281158594E+02  0.10281189931E+02  0.10000000000E-01 0. -1.
</event>
<event>
 7   0  0.6206631E-02  0.9118800E+02  0.7818608E-02  0.1180000E+00
       11   -1    0    0    0    0  0.00000000000E+00  0.00000000000E+00  0.11999999989E+02  0.12000000000E+02  0.51109989000E-03 0. -1.
     -623   -1    0    0    0    0  0.00000000000E+00  0.00000000000E+00  0.42561509872E-11  0.25126700000E+02  0.25126700000E+02 0. -1.
      622    2    1    2    0    0  0.58102302596E-02  0.94974002898E-02  0.11882383184E+02  0.11882757407E+02  0.93645547534E-01 0.  0.
       11    1    1    2    0    0 -0.11051733538E-01 -0.62519849031E-02  0.11655107740E+00  0.11724181420E+00  0.51109989000E-03 0. -1.
     -623    1    1    2    0    0  0.52415032787E-02 -0.32454153867E-02  0.10657272050E-02  0.25126700779E+02  0.25126700000E+02 0. -1.
     -611    1    3    3    0    0 -0.34612406858E-01  0.53385855511E-02  0.89661442845E+01  0.89662182580E+01  0.10000000000E-01 0.  1.
      611    1    3    3    0    0  0.40422637118E-01  0.41588147387E-02  0.29162389000E+01  0.29165391489E+01  0.10000000000E-01 0. -1.
</event>
<event>
 7   0  0.6206631E-02  0.9118800E+02  0.7818608E-02  0.1180000E+00
       11   -1    0    0    0    0  0.00000000000E+00  0.00000000000E+00  0.11999999989E+02  0.12000000000E+02  0.51109989000E-03 0.  1.
     -623   -1    0    0    0    0  0.00000000000E+00  0.00000000000E+00  0.42561509872E-11  0.25126700000E+02  0.25126700000E+02 0.  1.
      622    2    1    2    0    0 -0.68675987371E-03 -0.65844597012E-02  0.11960902917E+02  0.11961215761E+02  0.86255851128E-01 0.  0.
       11    1    1    2    0    0  0.21306949893E-01  0.41645768884E-02  0.32122979787E-01  0.38774693654E-01  0.51109989000E-03 0.  1.
     -623    1    1    2    0    0 -0.20620190019E-01  0.24198828128E-02  0.69740926353E-02  0.25126709545E+02  0.25126700000E+02 0.  1.
     -611    1    3    3    0    0  0.26652244279E-01  0.25503100845E-01  0.76412647027E+01  0.76413602851E+01  0.10000000000E-01 0.  1.
      611    1    3    3    0    0 -0.27339004152E-01 -0.32087560546E-01  0.43196382141E+01  0.43198554760E+01  0.10000000000E-01 0. -1.
</event>
<event>
 7   0  0.6206631E-02  0.9118800E+02  0.7818608E-02  0.1180000E+00
       11   -1    0    0    0    0  0.00000000000E+00  0.00000000000E+00  0.11999999989E+02  0.12000000000E+02  0.51109989000E-03 0. -1.
     -623   -1    0    0    0    0  0.00000000000E+00  0.00000000000E+00  0.42561509872E-11  0.25126700000E+02  0.25126700000E+02 0.  1.
      622    2    1    2    0    0  0.20436549329E-02  0.20417599222E-01  0.11703389102E+02  0.11703862454E+02  0.10324149671E+00 0.  0.
       11    1    1    2    0    0  0.15014450167E-02 -0.17817035532E-01  0.29559642097E+00  0.29613714122E+00  0.51109989000E-03 0. -1.
     -623    1    1    2    0    0 -0.35450999496E-02 -0.26005636897E-02  0.10144661719E-02  0.25126700405E+02  0.25126700000E+02 0.  1.
     -611    1    3    3    0    0  0.21158395979E-01  0.27670758396E-02  0.10835992730E+02  0.10836018354E+02  0.10000000000E-01 0. -1.
      611    1    3    3    0    0 -0.19114741046E-01  0.17650523382E-01  0.86739637244E+00  0.86784409961E+00  0.10000000000E-01 0.  1.
</event>
<event>
 7   0  0.6206631E-02  0.9118800E+02  0.7818608E-02  0.1180000E+00
       11   -1    0    0    0    0  0.00000000000E+00  0.00000000000E+00  0.11999999989E+02  0.12000000000E+02  0.51109989000E-03 0.  1.
     -623   -1    0    0    0    0  0.00000000000E+00  0.00000000000E+00  0.42561509872E-11  0.25126700000E+02  0.25126700000E+02 0.  1.
      622    2    1    2    0    0  0.12596772859E-02 -0.37349359913E-02  0.11898949610E+02  0.11899287136E+02  0.89537563809E-01 0.  0.
       11    1    1    2    0    0  0.75673232380E-03  0.34770725974E-02  0.10064859598E+00  0.10071277860E+00  0.51109989000E-03 0.  1.
     -623    1    1    2    0    0 -0.20164096097E-02  0.25786339384E-03  0.40178268926E-03  0.25126700085E+02  0.25126700000E+02 0.  1.
     -611    1    3    3    0    0 -0.16961193032E-01  0.37049068244E-01  0.69166991089E+01  0.69168263589E+01  0.10000000000E-01 0.  1.
      611    1    3    3    0    0  0.18220870317E-01 -0.40784004236E-01  0.49822505015E+01  0.49824607771E+01  0.10000000000E-01 0. -1.
</event>
<event>
 7   0  0.6206631E-02  0.9118800E+02  0.7818608E-02  0.1180000E+00
       11   -1    0    0    0    0  0.00000000000E+00  0.00000000000E+00  0.11999999989E+02  0.12000000000E+02  0.51109989000E-03 0.  1.
     -623   -1    0    0    0    0  0.00000000000E+00  0.00000000000E+00  0.42561509872E-11  0.25126700000E+02  0.25126700000E+02 0.  1.
      622    2    1    2    0    0 -0.47094782234E-02 -0.48913263240E-03  0.66751462976E+01  0.66758738100E+01  0.98440919878E-01 0.  0.
       11    1    1    2    0    0 -0.56108946251E-01  0.22140354468E-01  0.53237014994E+01  0.53240432309E+01  0.51109989000E-03 0.  1.
     -623    1    1    2    0    0  0.60818424474E-01 -0.21651221835E-01  0.11521922098E-02  0.25126782959E+02  0.25126700000E+02 0.  1.
     -611    1    3    3    0    0 -0.34636398953E-01  0.94888810596E-02  0.57735639266E+01  0.57736842772E+01  0.10000000000E-01 0.  1.
      611    1    3    3    0    0  0.29926920729E-01 -0.99780136920E-02  0.90158237097E+00  0.90218953274E+00  0.10000000000E-01 0. -1.
</event>
<event>
 7   0  0.6206631E-02  0.9118800E+02  0.7818608E-02  0.1180000E+00
       11   -1    0    0    0    0  0.00000000000E+00  0.00000000000E+00  0.11999999989E+02  0.12000000000E+02  0.51109989000E-03 0.  1.
     -623   -1    0    0    0    0  0.00000000000E+00  0.00000000000E+00  0.42561509872E-11  0.25126700000E+02  0.25126700000E+02 0. -1.
      622    2    1    2    0    0 -0.17854306514E-01 -0.17562620649E-03  0.11358178016E+02  0.11358616445E+02  0.98188052611E-01 0.  0.
       11    1    1    2    0    0  0.17778681547E-01 -0.52965509368E-03  0.64113665991E+00  0.64138353577E+00  0.51109989000E-03 0.  1.
     -623    1    1    2    0    0  0.75624967056E-04  0.70528130017E-03  0.68531330622E-03  0.25126700019E+02  0.25126700000E+02 0. -1.
     -611    1    3    3    0    0  0.36769073894E-01  0.14479073066E-01  0.57453627782E+01  0.57455073806E+01  0.10000000000E-01 0.  1.
      611    1    3    3    0    0 -0.54623380407E-01 -0.14654699272E-01  0.56128152377E+01  0.56131090642E+01  0.10000000000E-01 0. -1.
</event>
<event>
 7   0  0.6206631E-02  0.9118800E+02  0.7818608E-02  0.1180000E+00
       11   -1    0    0    0    0  0.00000000000E+00  0.00000000000E+00  0.11999999989E+02  0.12000000000E+02  0.51109989000E-03 0. -1.
     -623   -1    0    0    0    0  0.00000000000E+00  0.00000000000E+00  0.42561509872E-11  0.25126700000E+02  0.25126700000E+02 0. -1.
      622    2    1    2    0    0  0.42922778381E-01 -0.15814794038E-01  0.11631150674E+02  0.11631652892E+02  0.97931218140E-01 0.  0.
       11    1    1    2    0    0 -0.58465832891E-01  0.14836186924E-01  0.36336891545E+00  0.36834168376E+00  0.51109989000E-03 0. -1.
     -623    1    1    2    0    0  0.15543054510E-01  0.97860711374E-03  0.54803994110E-02  0.25126705424E+02  0.25126700000E+02 0. -1.
     -611    1    3    3    0    0  0.58131596050E-01  0.61941468780E-02  0.39137563876E+01  0.39142057574E+01  0.10000000000E-01 0.  1.
      611    1    3    3    0    0 -0.15208817668E-01 -0.22008940916E-01  0.77173942867E+01  0.77174471347E+01  0.10000000000E-01 0. -1.
</event>
<event>
 7   0  0.6206631E-02  0.9118800E+02  0.7818608E-02  0.1180000E+00
       11   -1    0    0    0    0  0.00000000000E+00  0.00000000000E+00  0.11999999989E+02  0.12000000000E+02  0.51109989000E-03 0.  1.
     -623   -1    0    0    0    0  0.00000000000E+00  0.00000000000E+00  0.42561509872E-11  0.25126700000E+02  0.25126700000E+02 0.  1.
      622    2    1    2    0    0 -0.71357947864E-01  0.56909749220E-01  0.10982134981E+02  0.10983233909E+02  0.12572858743E+00 0.  0.
       11    1    1    2    0    0  0.47377261004E-01  0.88556673519E-02  0.10155252312E+01  0.10166684731E+01  0.51109989000E-03 0.  1.
     -623    1    1    2    0    0  0.23980686860E-01 -0.65765416572E-01  0.23397766046E-02  0.25126797618E+02  0.25126700000E+02 0.  1.
     -611    1    3    3    0    0 -0.17886192174E-01 -0.30993205525E-01  0.12556042922E+01  0.12561539051E+01  0.10000000000E-01 0. -1.
      611    1    3    3    0    0 -0.53471755690E-01  0.87902954744E-01  0.97265306891E+01  0.97270800040E+01  0.10000000000E-01 0.  1.
</event>
<event>
 7   0  0.6206631E-02  0.9118800E+02  0.7818608E-02  0.1180000E+00
       11   -1    0    0    0    0  0.00000000000E+00  0.00000000000E+00  0.11999999989E+02  0.12000000000E+02  0.51109989000E-03 0.  1.
     -623   -1    0    0    0    0  0.00000000000E+00  0.00000000000E+00  0.42561509872E-11  0.25126700000E+02  0.25126700000E+02 0. -1.
      622    2    1    2    0    0 -0.24380064765E-02  0.41232876762E-03  0.11979024063E+02  0.11979555608E+02  0.11282265595E+00 0.  0.
       11    1    1    2    0    0  0.24290159729E-02 -0.26520196700E-02  0.20118994791E-01  0.20444277965E-01  0.51109989000E-03 0.  1.
     -623    1    1    2    0    0  0.89905036295E-05  0.22396909024E-02  0.85693182427E-03  0.25126700114E+02  0.25126700000E+02 0. -1.
     -611    1    3    3    0    0  0.56903051809E-02 -0.50481929767E-01  0.82439254627E+01  0.82440880539E+01  0.10000000000E-01 0.  1.
      611    1    3    3    0    0 -0.81283116574E-02  0.50894258535E-01  0.37350985998E+01  0.37354675538E+01  0.10000000000E-01 0. -1.
</event>
<event>
 7   0  0.6206631E-02  0.9118800E+02  0.7818608E-02  0.1180000E+00
       11   -1    0    0    0    0  0.00000000000E+00  0.00000000000E+00  0.11999999989E+02  0.12000000000E+02  0.51109989000E-03 0. -1.
     -623   -1    0    0    0    0  0.00000000000E+00  0.00000000000E+00  0.42561509872E-11  0.25126700000E+02  0.25126700000E+02 0.  1.
      622    2    1    2    0    0 -0.37032216269E-01 -0.25672546899E-01  0.10924122871E+02  0.10924850770E+02  0.11778527773E+00 0.  0.
       11    1    1    2    0    0  0.28014120396E-01  0.14568674776E-02  0.10747697748E+01  0.10751359186E+01  0.51109989000E-03 0. -1.
     -623    1    1    2    0    0  0.90180958729E-02  0.24215679421E-01  0.11073430310E-02  0.25126713312E+02  0.25126700000E+02 0.  1.
     -611    1    3    3    0    0  0.18508314190E-01  0.47760521806E-02  0.79821617119E+01  0.79821908624E+01  0.10000000000E-01 0. -1.
      611    1    3    3    0    0 -0.55540530459E-01 -0.30448599079E-01  0.29419611594E+01  0.29426599075E+01  0.10000000000E-01 0.  1.
</event>
<event>
 7   0  0.6206631E-02  0.9118800E+02  0.7818608E-02  0.1180000E+00
       11   -1    0    0    0    0  0.00000000000E+00  0.00000000000E+00  0.11999999989E+02  0.12000000000E+02  0.51109989000E-03 0.  1.
     -623   -1    0    0    0    0  0.00000000000E+00  0.00000000000E+00  0.42561509872E-11  0.25126700000E+02  0.25126700000E+02 0.  1.
      622    2    1    2    0    0  0.28785195977E-01 -0.80950882795E-02  0.69889570138E+01  0.69897056229E+01  0.97828602484E-01 0.  0.
       11    1    1    2    0    0 -0.29063720468E-01  0.10846672126E-01  0.50101981465E+01  0.50102942108E+01  0.51109989000E-03 0.  1.
     -623    1    1    2    0    0  0.27852449165E-03 -0.27515838469E-02  0.84482886037E-03  0.25126700166E+02  0.25126700000E+02 0.  1.
     -611    1    3    3    0    0 -0.11936525315E-01  0.35645063487E-01  0.35681416598E+01  0.35683536758E+01  0.10000000000E-01 0. -1.
      611    1    3    3    0    0  0.40721721292E-01 -0.43740151766E-01  0.34208153540E+01  0.34213519470E+01  0.10000000000E-01 0. -1.
</event>
<event>
 7   0  0.6206631E-02  0.9118800E+02  0.7818608E-02  0.1180000E+00
       11   -1    0    0    0    0  0.00000000000E+00  0.00000000000E+00  0.11999999989E+02  0.12000000000E+02  0.51109989000E-03 0. -1.
     -623   -1    0    0    0    0  0.00000000000E+00  0.00000000000E+00  0.42561509872E-11  0.25126700000E+02  0.25126700000E+02 0.  1.
      622    2    1    2    0    0 -0.74329864270E-01 -0.14815785402E-02  0.91616392861E+01  0.91624468731E+01  0.96286921616E-01 0.  0.
       11    1    1    2    0    0  0.64030345744E-01  0.12614998215E-01  0.28367978796E+01  0.28375485008E+01  0.51109989000E-03 0. -1.
     -623    1    1    2    0    0  0.10299518526E-01 -0.11133419675E-01  0.15628234370E-02  0.25126704626E+02  0.25126700000E+02 0.  1.
     -611    1    3    3    0    0 -0.25566756498E-01  0.41524677664E-01  0.25898311851E+01  0.25903095424E+01  0.10000000000E-01 0.  1.
      611    1    3    3    0    0 -0.48763107772E-01 -0.43006256204E-01  0.65718081010E+01  0.65721373308E+01  0.10000000000E-01 0. -1.
</event>
<event>
 7   0  0.6206631E-02  0.9118800E+02  0.7818608E-02  0.1180000E+00
       11   -1    0    0    0    0  0.00000000000E+00  0.00000000000E+00  0.11999999989E+02  0.12000000000E+02  0.51109989000E-03 0.  1.
     -623   -1    0    0    0    0  0.00000000000E+00  0.00000000000E+00  0.42561509872E-11  0.25126700000E+02  0.25126700000E+02 0.  1.
      622    2    1    2    0    0  0.61667015158E-01 -0.14014282753E+00  0.79781588328E+01  0.79815708107E+01  0.17610057243E+00 0.  0.
       11    1    1    2    0    0 -0.43289247858E-01  0.13986550973E+00  0.40157535551E+01  0.40184217296E+01  0.51109989000E-03 0.  1.
     -623    1    1    2    0    0 -0.18377767301E-01  0.27731779945E-03  0.60876011771E-02  0.25126707460E+02  0.25126700000E+02 0.  1.
     -611    1    3    3    0    0  0.45833071718E-01 -0.12288518344E+00  0.78388443036E+01  0.78399477967E+01  0.10000000000E-01 0.  1.
      611    1    3    3    0    0  0.15833943440E-01 -0.17257644086E-01  0.13931452922E+00  0.14162301400E+00  0.10000000000E-01 0. -1.
</event>
<event>
 7   0  0.6206631E-02  0.9118800E+02  0.7818608E-02  0.1180000E+00
       11   -1    0    0    0    0  0.00000000000E+00  0.00000000000E+00  0.11999999989E+02  0.12000000000E+02  0.51109989000E-03 0. -1.
     -623   -1    0    0    0    0  0.00000000000E+00  0.00000000000E+00  0.42561509872E-11  0.25126700000E+02  0.25126700000E+02 0. -1.
      622    2    1    2    0    0  0.25202149842E-02 -0.11489328356E-02  0.11905648095E+02  0.11906055284E+02  0.98428563613E-01 0.  0.
       11    1    1    2    0    0 -0.24840493666E-02  0.58157361199E-03  0.93908667121E-01  0.93944705613E-01  0.51109989000E-03 0. -1.
     -623    1    1    2    0    0 -0.36165617557E-04  0.56735922360E-03  0.44322653179E-03  0.25126700010E+02  0.25126700000E+02 0. -1.
     -611    1    3    3    0    0 -0.16540709128E-01 -0.33843588825E-01  0.23206013698E+01  0.23209286290E+01  0.10000000000E-01 0.  1.
      611    1    3    3    0    0  0.19060924112E-01  0.32694655990E-01  0.95850467257E+01  0.95851266551E+01  0.10000000000E-01 0. -1.
</event>
<event>
 7   0  0.6206631E-02  0.9118800E+02  0.7818608E-02  0.1180000E+00
       11   -1    0    0    0    0  0.00000000000E+00  0.00000000000E+00  0.11999999989E+02  0.12000000000E+02  0.51109989000E-03 0.  1.
     -623   -1    0    0    0    0  0.00000000000E+00  0.00000000000E+00  0.42561509872E-11  0.25126700000E+02  0.25126700000E+02 0.  1.
      622    2    1    2    0    0 -0.18396450542E-01 -0.43890791154E-02  0.11834568049E+02  0.11835355357E+02  0.13519549267E+00 0.  0.
       11    1    1    2    0    0 -0.25924401714E-01 -0.43374419006E-01  0.15660734133E+00  0.16455860783E+00  0.51109989000E-03 0.  1.
     -623    1    1    2    0    0  0.44320852256E-01  0.47763498121E-01  0.88245984789E-02  0.25126786035E+02  0.25126700000E+02 0.  1.
     -611    1    3    3    0    0  0.37436740169E-01  0.46095604490E-01  0.48120796562E+01  0.48124564342E+01  0.10000000000E-01 0. -1.
      611    1    3    3    0    0 -0.55833190711E-01 -0.50484683605E-01  0.70224883932E+01  0.70228989228E+01  0.10000000000E-01 0.  1.
</event>
<event>
 7   0  0.6206631E-02  0.9118800E+02  0.7818608E-02  0.1180000E+00
       11   -1    0    0    0    0  0.00000000000E+00  0.00000000000E+00  0.11999999989E+02  0.12000000000E+02  0.51109989000E-03 0. -1.
     -623   -1    0    0    0    0  0.00000000000E+00  0.00000000000E+00  0.42561509872E-11  0.25126700000E+02  0.25126700000E+02 0. -1.
      622    2    1    2    0    0  0.12168561847E-02 -0.56299822623E-03  0.11998021271E+02  0.11998336156E+02  0.86915407194E-01 0.  0.
       11    1    1    2    0    0  0.13784569050E-02 -0.33327562958E-03  0.70379727300E-03  0.16636615680E-02  0.51109989000E-03 0. -1.
     -623    1    1    2    0    0 -0.25953130897E-02  0.89627385581E-03  0.12749204743E-02  0.25126700182E+02  0.25126700000E+02 0. -1.
     -611    1    3    3    0    0  0.60981016017E-02 -0.19296183241E-02  0.22745366714E+00  0.22776321249E+00  0.10000000000E-01 0. -1.
      611    1    3    3    0    0 -0.48812454170E-02  0.13666200979E-02  0.11770567604E+02  0.11770572944E+02  0.10000000000E-01 0. -1.
</event>
<event>
 7   0  0.6206631E-02  0.9118800E+02  0.7818608E-02  0.1180000E+00
       11   -1    0    0    0    0  0.00000000000E+00  0.00000000000E+00  0.11999999989E+02  0.12000000000E+02  0.51109989000E-03 0.  1.
     -623   -1    0    0    0    0  0.00000000000E+00  0.00000000000E+00  0.42561509872E-11  0.25126700000E+02  0.25126700000E+02 0.  1.
      622    2    1    2    0    0 -0.58677264526E-03 -0.10466806508E-01  0.11845148139E+02  0.11845276535E+02  0.54146621681E-01 0.  0.
       11    1    1    2    0    0  0.10896336063E-01  0.14283495178E-01  0.15367364232E+00  0.15472103264E+00  0.51109989000E-03 0.  1.
     -623    1    1    2    0    0 -0.10309563417E-01 -0.38166886691E-02  0.11782079260E-02  0.25126702433E+02  0.25126700000E+02 0.  1.
     -611    1    3    3    0    0 -0.20356938619E-01 -0.63165938600E-02  0.92656818054E+01  0.92657117170E+01  0.10000000000E-01 0.  1.
      611    1    3    3    0    0  0.19770165974E-01 -0.41502126484E-02  0.25794663334E+01  0.25795648177E+01  0.10000000000E-01 0.  1.
</event>
<event>
 7   0  0.6206631E-02  0.9118800E+02  0.7818608E-02  0.1180000E+00
       11   -1    0    0    0    0  0.00000000000E+00  0.00000000000E+00  0.11999999989E+02  0.12000000000E+02  0.51109989000E-03 0. -1.
     -623   -1    0    0    0    0  0.00000000000E+00  0.00000000000E+00  0.42561509872E-11  0.25126700000E+02  0.25126700000E+02 0.  1.
      622    2    1    2    0    0 -0.11102058248E+00  0.16852584580E+00  0.86801899349E+01  0.86830964539E+01  0.98692407448E-01 0.  0.
       11    1    1    2    0    0  0.10952234826E+00 -0.17204564931E+00  0.33106254629E+01  0.33169015763E+01  0.51109989000E-03 0. -1.
     -623    1    1    2    0    0  0.14982342211E-02  0.35198035148E-02  0.91845913687E-02  0.25126701970E+02  0.25126700000E+02 0.  1.
     -611    1    3    3    0    0 -0.55645808797E-01  0.12996022827E-01  0.26770746963E+01  0.26777031729E+01  0.10000000000E-01 0. -1.
      611    1    3    3    0    0 -0.55374773682E-01  0.15552982297E+00  0.60031152386E+01  0.60053932810E+01  0.10000000000E-01 0. -1.
</event>
<event>
 7   0  0.6206631E-02  0.9118800E+02  0.7818608E-02  0.1180000E+00
       11   -1    0    0    0    0  0.00000000000E+00  0.00000000000E+00  0.11999999989E+02  0.12000000000E+02  0.51109989000E-03 0.  1.
     -623   -1    0    0    0    0  0.00000000000E+00  0.00000000000E+00  0.42561509872E-11  0.25126700000E+02  0.25126700000E+02 0. -1.
      622    2    1    2    0    0  0.20152533717E-02  0.38182575154E-02  0.11939239426E+02  0.11939440080E+02  0.69084781846E-01 0.  0.
       11    1    1    2    0    0 -0.49554776514E-02 -0.17042326312E-02  0.60330336597E-01  0.60559655751E-01  0.51109989000E-03 0.  1.
     -623    1    1    2    0    0  0.29402242797E-02 -0.21140248842E-02  0.43022669990E-03  0.25126700265E+02  0.25126700000E+02 0. -1.
     -611    1    3    3    0    0  0.98881715458E-02  0.27446193897E-01  0.95523134074E+01  0.95523631895E+01  0.10000000000E-01 0.  1.
      611    1    3    3    0    0 -0.78729181742E-02 -0.23627936381E-01  0.23869260184E+01  0.23870768902E+01  0.10000000000E-01 0. -1.
</event>
<event>
 7   0  0.6206631E-02  0.9118800E+02  0.7818608E-02  0.1180000E+00
       11   -1    0    0    0    0  0.00000000000E+00  0.00000000000E+00  0.11999999989E+02  0.12000000000E+02  0.51109989000E-03 0.  1.
     -623   -1    0    0    0    0  0.00000000000E+00  0.00000000000E+00  0.42561509872E-11  0.25126700000E+02  0.25126700000E+02 0. -1.
      622    2    1    2    0    0 -0.13826956521E-01  0.29427238247E-01  0.10861499842E+02  0.10861948547E+02  0.93221628255E-01 0.  0.
       11    1    1    2    0    0  0.13005709562E-01 -0.31459729522E-01  0.11375419671E+01  0.11380513394E+01  0.51109989000E-03 0.  1.
     -623    1    1    2    0    0  0.82124695880E-03  0.20324912755E-02  0.95818031417E-03  0.25126700114E+02  0.25126700000E+02 0. -1.
     -611    1    3    3    0    0  0.26690011233E-01 -0.18121603894E-01  0.47908181486E+01  0.47909372029E+01  0.10000000000E-01 0.  1.
      611    1    3    3    0    0 -0.40516967754E-01  0.47548842141E-01  0.60706816931E+01  0.60710113438E+01  0.10000000000E-01 0. -1.
</event>
<event>
 7   0  0.6206631E-02  0.9118800E+02  0.7818608E-02  0.1180000E+00
       11   -1    0    0    0    0  0.00000000000E+00  0.00000000000E+00  0.11999999989E+02  0.12000000000E+02  0.51109989000E-03 0. -1.
     -623   -1    0    0    0    0  0.00000000000E+00  0.00000000000E+00  0.42561509872E-11  0.25126700000E+02  0.25126700000E+02 0.  1.
      622    2    1    2    0    0  0.78740499634E-03 -0.10841077032E-01  0.11859526204E+02  0.11860114832E+02  0.11766012779E+00 0.  0.
       11    1    1    2    0    0 -0.74431784400E-02  0.36302156531E-02  0.13963695651E+00  0.13988323780E+00  0.51109989000E-03 0. -1.
     -623    1    1    2    0    0  0.66557734436E-02  0.72108613787E-02  0.83682896252E-03  0.25126701930E+02  0.25126700000E+02 0.  1.
     -611    1    3    3    0    0 -0.19585228897E-01 -0.94726721294E-02  0.11401130112E+02  0.11401155255E+02  0.10000000000E-01 0. -1.
      611    1    3    3    0    0  0.20372633893E-01 -0.13684049024E-02  0.45839609129E+00  0.45895957693E+00  0.10000000000E-01 0.  1.
</event>
<event>
 7   0  0.6206631E-02  0.9118800E+02  0.7818608E-02  0.1180000E+00
       11   -1    0    0    0    0  0.00000000000E+00  0.00000000000E+00  0.11999999989E+02  0.12000000000E+02  0.51109989000E-03 0. -1.
     -623   -1    0    0    0    0  0.00000000000E+00  0.00000000000E+00  0.42561509872E-11  0.25126700000E+02  0.25126700000E+02 0. -1.
      622    2    1    2    0    0 -0.75016956610E-02  0.26742929514E-01  0.10752697911E+02  0.10753309221E+02  0.11124465373E+00 0.  0.
       11    1    1    2    0    0  0.24783974123E-01 -0.41765577122E-01  0.12457338758E+01  0.12466802955E+01  0.51109989000E-03 0. -1.
     -623    1    1    2    0    0 -0.17282278462E-01  0.15022647608E-01  0.15682018684E-02  0.25126710483E+02  0.25126700000E+02 0. -1.
     -611    1    3    3    0    0  0.15407597166E-01  0.41142763839E-01  0.99357129349E+01  0.99358150972E+01  0.10000000000E-01 0. -1.
      611    1    3    3    0    0 -0.22909292827E-01 -0.14399834325E-01  0.81698497660E+00  0.81749412408E+00  0.10000000000E-01 0.  1.
</event>
<event>
 7   0  0.6206631E-02  0.9118800E+02  0.7818608E-02  0.1180000E+00
       11   -1    0    0    0    0  0.00000000000E+00  0.00000000000E+00  0.11999999989E+02  0.12000000000E+02  0.51109989000E-03 0. -1.
     -623   -1    0    0    0    0  0.00000000000E+00  0.00000000000E+00  0.42561509872E-11  0.25126700000E+02  0.25126700000E+02 0. -1.
      622    2    1    2    0    0  0.42222932686E-01 -0.22683292102E-01  0.91443329140E+01  0.91450424625E+01  0.10334356118E+00 0.  0.
       11    1    1    2    0    0 -0.53358523795E-01  0.20673794248E-01  0.28543813700E+01  0.28549549567E+01  0.51109989000E-03 0. -1.
     -623    1    1    2    0    0  0.11135591109E-01  0.20094978542E-02  0.12857050634E-02  0.25126702581E+02  0.25126700000E+02 0. -1.
     -611    1    3    3    0    0 -0.18370422692E-01  0.11341288840E-01  0.67611408166E+00  0.67653259247E+00  0.10000000000E-01 0.  1.
      611    1    3    3    0    0  0.60593355378E-01 -0.34024580942E-01  0.84682188324E+01  0.84685098701E+01  0.10000000000E-01 0. -1.
</event>
<event>
 7   0  0.6206631E-02  0.9118800E+02  0.7818608E-02  0.1180000E+00
       11   -1    0    0    0    0  0.00000000000E+00  0.00000000000E+00  0.11999999989E+02  0.12000000000E+02  0.51109989000E-03 0. -1.
     -623   -1    0    0    0    0  0.00000000000E+00  0.00000000000E+00  0.42561509872E-11  0.25126700000E+02  0.25126700000E+02 0.  1.
      622    2    1    2    0    0  0.16825017910E-01  0.89460378837E-02  0.11915012982E+02  0.11915939162E+02  0.14733849016E+00 0.  0.
       11    1    1    2    0    0 -0.23987998241E-01  0.14734989701E-01  0.79191283030E-01  0.84047989340E-01  0.51109989000E-03 0. -1.
     -623    1    1    2    0    0  0.71629803311E-02 -0.23681027585E-01  0.57957237799E-02  0.25126712849E+02  0.25126700000E+02 0.  1.
     -611    1    3    3    0    0  0.42803623302E-01  0.62776758041E-01  0.88199181089E+01  0.88202510463E+01  0.10000000000E-01 0. -1.
      611    1    3    3    0    0 -0.25978605392E-01 -0.53830720157E-01  0.30950948734E+01  0.30956881157E+01  0.10000000000E-01 0.  1.
</event>
<event>
 7   0  0.6206631E-02  0.9118800E+02  0.7818608E-02  0.1180000E+00
       11   -1    0    0    0    0  0.00000000000E+00  0.00000000000E+00  0.11999999989E+02  0.12000000000E+02  0.51109989000E-03 0. -1.
     -623   -1    0    0    0    0  0.00000000000E+00  0.00000000000E+00  0.42561509872E-11  0.25126700000E+02  0.25126700000E+02 0. -1.
      622    2    1    2    0    0  0.38229080942E-01 -0.71658325445E-02  0.10382584919E+02  0.10383807222E+02  0.15449922418E+00 0.  0.
       11    1    1    2    0    0 -0.40656385208E-01  0.11486070145E-01  0.16156398671E+01  0.16161922264E+01  0.51109989000E-03 0. -1.
     -623    1    1    2    0    0  0.24273042657E-02 -0.43202376010E-02  0.17752027668E-02  0.25126700551E+02  0.25126700000E+02 0. -1.
     -611    1    3    3    0    0 -0.50520150166E-01  0.29008622792E-01  0.51103060172E+01  0.51106478430E+01  0.10000000000E-01 0.  1.
      611    1    3    3    0    0  0.88749231108E-01 -0.36174455336E-01  0.52722789020E+01  0.52731593792E+01  0.10000000000E-01 0. -1.
</event>
<event>
 7   0  0.6206631E-02  0.9118800E+02  0.7818608E-02  0.1180000E+00
       11   -1    0    0    0    0  0.00000000000E+00  0.00000000000E+00  0.11999999989E+02  0.12000000000E+02  0.51109989000E-03 0.  1.
     -623   -1    0    0    0    0  0.00000000000E+00  0.00000000000E+00  0.42561509872E-11  0.25126700000E+02  0.25126700000E+02 0.  1.
      622    2    1    2    0    0 -0.18597432167E+00 -0.12263936478E-01  0.75037033331E+01  0.75079273181E+01  0.16932823057E+00 0.  0.
       11    1    1    2    0    0  0.17387190715E+00 -0.33737064285E-01  0.44885333711E+01  0.44920264596E+01  0.51109989000E-03 0.  1.
     -623    1    1    2    0    0  0.12102414522E-01  0.46001000763E-01  0.77632849287E-02  0.25126746222E+02  0.25126700000E+02 0.  1.
     -611    1    3    3    0    0  0.30701581518E-01 -0.52805216651E-02  0.13561393231E+01  0.13565339415E+01  0.10000000000E-01 0. -1.
      611    1    3    3    0    0 -0.21667590319E+00 -0.69834148129E-02  0.61475640101E+01  0.61513933765E+01  0.10000000000E-01 0.  1.
</event>
<event>
 7   0  0.6206631E-02  0.9118800E+02  0.7818608E-02  0.1180000E+00
       11   -1    0    0    0    0  0.00000000000E+00  0.00000000000E+00  0.11999999989E+02  0.12000000000E+02  0.51109989000E-03 0.  1.
     -623   -1    0    0    0    0  0.00000000000E+00  0.00000000000E+00  0.42561509872E-11  0.25126700000E+02  0.25126700000E+02 0.  1.
      622    2    1    2    0    0 -0.61884027891E-02 -0.51932959171E-01  0.10015850424E+02  0.10016606267E+02  0.11138252363E+00 0.  0.
       11    1    1    2    0    0  0.41574351847E-02  0.51455281407E-01  0.19827216151E+01  0.19833936055E+01  0.51109989000E-03 0.  1.
     -623    1    1    2    0    0  0.20309676044E-02  0.47767776413E-03  0.14279498959E-02  0.25126700127E+02  0.25126700000E+02 0.  1.
     -611    1    3    3    0    0 -0.65644239882E-02  0.20221894723E-01  0.58129516545E+00  0.58176978786E+00  0.10000000000E-01 0. -1.
      611    1    3    3    0    0  0.37602119914E-03 -0.72154853894E-01  0.94345552587E+01  0.94348364794E+01  0.10000000000E-01 0.  1.
</event>
<event>
 7   0  0.6206631E-02  0.9118800E+02  0.7818608E-02  0.1180000E+00
       11   -1    0    0    0    0  0.00000000000E+00  0.00000000000E+00  0.11999999989E+02  0.12000000000E+02  0.51109989000E-03 0.  1.
     -623   -1    0    0    0    0  0.00000000000E+00  0.00000000000E+00  0.42561509872E-11  0.25126700000E+02  0.25126700000E+02 0.  1.
      622    2    1    2    0    0  0.27175171581E-01 -0.65487862837E-02  0.11677013443E+02  0.11677497554E+02  0.10259042155E+00 0.  0.
       11    1    1    2    0    0 -0.79350299193E-02  0.50225824127E-01  0.31842183704E+00  0.32245670351E+00  0.51109989000E-03 0.  1.
     -623    1    1    2    0    0 -0.19240141661E-01 -0.43677037844E-01  0.45647085940E-02  0.25126745742E+02  0.25126700000E+02 0.  1.
     -611    1    3    3    0    0  0.52558812710E-01 -0.14507217286E-01  0.10480690644E+02  0.10480837241E+02  0.10000000000E-01 0.  1.
      611    1    3    3    0    0 -0.25383641130E-01  0.79584310026E-02  0.11963227995E+01  0.11966603137E+01  0.10000000000E-01 0. -1.
</event>
<event>
 7   0  0.6206631E-02  0.9118800E+02  0.7818608E-02  0.1180000E+00
       11   -1    0    0    0    0  0.00000000000E+00  0.00000000000E+00  0.11999999989E+02  0.12000000000E+02  0.51109989000E-03 0. -1.
     -623   -1    0    0    0    0  0.00000000000E+00  0.00000000000E+00  0.42561509872E-11  0.25126700000E+02  0.25126700000E+02 0. -1.
      622    2    1    2    0    0  0.16640020963E-01 -0.64040229607E-01  0.84647659019E+01  0.84656883587E+01  0.10601684343E+00 0.  0.
       11    1    1    2    0    0  0.41071439184E-01  0.10329608995E+00  0.35324658897E+01  0.35342145476E+01  0.51109989000E-03 0. -1.
     -623    1    1    2    0    0 -0.57711460147E-01 -0.39255860345E-01  0.27681975025E-02  0.25126797094E+02  0.25126700000E+02 0. -1.
     -611    1    3    3    0    0 -0.12396962971E-01 -0.34348992758E-01  0.89337381482E+00  0.89417577187E+00  0.10000000000E-01 0.  1.
      611    1    3    3    0    0  0.29036983934E-01 -0.29691236848E-01  0.75713920871E+01  0.75715125869E+01  0.10000000000E-01 0. -1.
</event>
<event>
 7   0  0.6206631E-02  0.9118800E+02  0.7818608E-02  0.1180000E+00
       11   -1    0    0    0    0  0.00000000000E+00  0.00000000000E+00  0.11999999989E+02  0.12000000000E+02  0.51109989000E-03 0.  1.
     -623   -1    0    0    0    0  0.00000000000E+00  0.00000000000E+00  0.42561509872E-11  0.25126700000E+02  0.25126700000E+02 0. -1.
      622    2    1    2    0    0 -0.25536725745E-02 -0.16521006082E-02  0.11951005472E+02  0.11951508608E+02  0.10962193722E+00 0.  0.
       11    1    1    2    0    0  0.29888491330E-03  0.76203598160E-03  0.48481666758E-01  0.48491269995E-01  0.51109989000E-03 0.  1.
     -623    1    1    2    0    0  0.22547876612E-02  0.89006462658E-03  0.51285071178E-03  0.25126700122E+02  0.25126700000E+02 0. -1.
     -611    1    3    3    0    0  0.13711394395E-01  0.47597381265E-01  0.38604873683E+01  0.38608180783E+01  0.10000000000E-01 0. -1.
      611    1    3    3    0    0 -0.16265066969E-01 -0.49249481874E-01  0.80905181034E+01  0.80906905295E+01  0.10000000000E-01 0.  1.
</event>
<event>
 7   0  0.6206631E-02  0.9118800E+02  0.7818608E-02  0.1180000E+00
       11   -1    0    0    0    0  0.00000000000E+00  0.00000000000E+00  0.11999999989E+02  0.12000000000E+02  0.51109989000E-03 0.  1.
     -623   -1    0    0    0    0  0.00000000000E+00  0.00000000000E+00  0.42561509872E-11  0.25126700000E+02  0.25126700000E+02 0. -1.
      622    2    1    2    0    0 -0.21856261689E-01  0.53924679451E-02  0.99548727789E+01  0.99550580157E+01  0.56402800082E-01 0.  0.
       11    1    1    2    0    0  0.17521567392E-01  0.10635102786E-01  0.20448337108E+01  0.20449364970E+01  0.51109989000E-03 0.  1.
     -623    1    1    2    0    0  0.43346942974E-02 -0.16027570731E-01  0.29349943247E-03  0.25126705487E+02  0.25126700000E+02 0. -1.
     -611    1    3    3    0    0 -0.15512949505E-01  0.17838816756E-01  0.19756496669E+01  0.19758164088E+01  0.10000000000E-01 0. -1.
      611    1    3    3    0    0 -0.63433121839E-02 -0.12446348811E-01  0.79792231120E+01  0.79792416069E+01  0.10000000000E-01 0.  1.
</event>
<event>
 7   0  0.6206631E-02  0.9118800E+02  0.7818608E-02  0.1180000E+00
       11   -1    0    0    0    0  0.00000000000E+00  0.00000000000E+00  0.11999999989E+02  0.12000000000E+02  0.51109989000E-03 0. -1.
     -623   -1    0    0    0    0  0.00000000000E+00  0.00000000000E+00  0.42561509872E-11  0.25126700000E+02  0.25126700000E+02 0.  1.
      622    2    1    2    0    0 -0.12217544834E-02 -0.35733476016E-02  0.11898324588E+02  0.11898774707E+02  0.10342751636E+00 0.  0.
       11    1    1    2    0    0  0.69861531369E-02  0.80223979060E-02  0.10066238561E+00  0.10122421797E+00  0.51109989000E-03 0. -1.
     -623    1    1    2    0    0 -0.57643986535E-02 -0.44490503044E-02  0.10130154160E-02  0.25126701076E+02  0.25126700000E+02 0.  1.
     -611    1    3    3    0    0 -0.72869383888E-02 -0.48454918544E-01  0.39782926370E+01  0.39786069527E+01  0.10000000000E-01 0.  1.
      611    1    3    3    0    0  0.60651839054E-02  0.44881570942E-01  0.79200319511E+01  0.79201677538E+01  0.10000000000E-01 0. -1.
</event>
<event>
 7   0  0.6206631E-02  0.9118800E+02  0.7818608E-02  0.1180000E+00
       11   -1    0    0    0    0  0.00000000000E+00  0.00000000000E+00  0.11999999989E+02  0.12000000000E+02  0.51109989000E-03 0.  1.
     -623   -1    0    0    0    0  0.00000000000E+00  0.00000000000E+00  0.42561509872E-11  0.25126700000E+02  0.25126700000E+02 0. -1.
      622    2    1    2    0    0 -0.46547374994E-01 -0.76308300654E-02  0.89504134373E+01  0.89526703683E+01  0.19539994117E+00 0.  0.
       11    1    1    2    0    0  0.34599013257E-01 -0.24123594973E-02  0.30471272424E+01  0.30473246633E+01  0.51109989000E-03 0.  1.
     -623    1    1    2    0    0  0.11948361737E-01  0.10043189563E-01  0.24593094154E-02  0.25126704968E+02  0.25126700000E+02 0. -1.
     -611    1    3    3    0    0  0.27024785834E-01 -0.59969412392E-01  0.68159518037E+01  0.68162765246E+01  0.10000000000E-01 0. -1.
      611    1    3    3    0    0 -0.73572160828E-01  0.52338582327E-01  0.21344616336E+01  0.21363938437E+01  0.10000000000E-01 0.  1.
</event>
<event>
 7   0  0.6206631E-02  0.9118800E+02  0.7818608E-02  0.1180000E+00
       11   -1    0    0    0    0  0.00000000000E+00  0.00000000000E+00  0.11999999989E+02  0.12000000000E+02  0.51109989000E-03 0.  1.
     -623   -1    0    0    0    0  0.00000000000E+00  0.00000000000E+00  0.42561509872E-11  0.25126700000E+02  0.25126700000E+02 0. -1.
      622    2    1    2    0    0  0.10582903068E-01  0.73336962138E-01  0.82232394611E+01  0.82240878454E+01  0.91996453143E-01 0.  0.
       11    1    1    2    0    0 -0.21441084956E-01 -0.69678056087E-01  0.37752056227E+01  0.37759094939E+01  0.51109989000E-03 0.  1.
     -623    1    1    2    0    0  0.10858181888E-01 -0.36589060506E-02  0.15549053556E-02  0.25126702661E+02  0.25126700000E+02 0. -1.
     -611    1    3    3    0    0 -0.16113081256E-01  0.23458536104E-01  0.60906318645E+01  0.60907065636E+01  0.10000000000E-01 0.  1.
      611    1    3    3    0    0  0.26695984324E-01  0.49878426035E-01  0.21326075965E+01  0.21333812819E+01  0.10000000000E-01 0.  1.
</event>
<event>
 7   0  0.6206631E-02  0.9118800E+02  0.7818608E-02  0.1180000E+00
       11   -1    0    0    0    0  0.00000000000E+00  0.00000000000E+00  0.11999999989E+02  0.12000000000E+02  0.51109989000E-03 0. -1.
     -623   -1    0    0    0    0  0.00000000000E+00  0.00000000000E+00  0.42561509872E-11  0.25126700000E+02  0.25126700000E+02 0. -1.
      622    2    1    2    0    0 -0.29309996861E-01 -0.10403415679E-01  0.11707523696E+02  0.11707825951E+02  0.78167195854E-01 0.  0.
       11    1    1    2    0    0 -0.44393361401E-02  0.10442976685E-01  0.29193047563E+00  0.29215137736E+00  0.51109989000E-03 0. -1.
     -623    1    1    2    0    0  0.33749333001E-01 -0.39561006795E-04  0.54581774659E-03  0.25126722671E+02  0.25126700000E+02 0. -1.
     -611    1    3    3    0    0 -0.15218604073E-01  0.16158294142E-01  0.11636627912E+01  0.11639174318E+01  0.10000000000E-01 0.  1.
      611    1    3    3    0    0 -0.14091392788E-01 -0.26561709821E-01  0.10543860904E+02  0.10543908519E+02  0.10000000000E-01 0. -1.
</event>
<event>
 7   0  0.6206631E-02  0.9118800E+02  0.7818608E-02  0.1180000E+00
       11   -1    0    0    0    0  0.00000000000E+00  0.00000000000E+00  0.11999999989E+02  0.12000000000E+02  0.51109989000E-03 0. -1.
     -623   -1    0    0    0    0  0.00000000000E+00  0.00000000000E+00  0.42561509872E-11  0.25126700000E+02  0.25126700000E+02 0.  1.
      622    2    1    2    0    0  0.11098620113E-02  0.60137817813E-03  0.11991103507E+02  0.11991359124E+02  0.78286143281E-01 0.  0.
       11    1    1    2    0    0  0.45612698175E-03 -0.16717160610E-02  0.84498239550E-02  0.86408005664E-02  0.51109989000E-03 0. -1.
     -623    1    1    2    0    0 -0.15659889931E-02  0.10703378829E-02  0.44665781904E-03  0.25126700076E+02  0.25126700000E+02 0.  1.
     -611    1    3    3    0    0  0.17297741864E-01  0.21279747395E-01  0.10142925754E+02  0.10142967756E+02  0.10000000000E-01 0. -1.
      611    1    3    3    0    0 -0.16187879853E-01 -0.20678369217E-01  0.18481777534E+01  0.18483913683E+01  0.10000000000E-01 0.  1.
</event>
<event>
 7   0  0.6206631E-02  0.9118800E+02  0.7818608E-02  0.1180000E+00
       11   -1    0    0    0    0  0.00000000000E+00  0.00000000000E+00  0.11999999989E+02  0.12000000000E+02  0.51109989000E-03 0. -1.
     -623   -1    0    0    0    0  0.00000000000E+00  0.00000000000E+00  0.42561509872E-11  0.25126700000E+02  0.25126700000E+02 0. -1.
      622    2    1    2    0    0  0.96712481634E-01 -0.32986170526E-01  0.10974177549E+02  0.10975125549E+02  0.10181626978E+00 0.  0.
       11    1    1    2    0    0 -0.88771917053E-01  0.17577098554E-01  0.10208646886E+01  0.10248679824E+01  0.51109989000E-03 0. -1.
     -623    1    1    2    0    0 -0.79405645815E-02  0.15409071972E-01  0.49577517699E-02  0.25126706469E+02  0.25126700000E+02 0. -1.
     -611    1    3    3    0    0  0.71142382170E-01  0.14342025332E-01  0.86240062636E+01  0.86243174203E+01  0.10000000000E-01 0. -1.
      611    1    3    3    0    0  0.25570099465E-01 -0.47328195858E-01  0.23501712852E+01  0.23508081286E+01  0.10000000000E-01 0.  1.
</event>
<event>
 7   0  0.6206631E-02  0.9118800E+02  0.7818608E-02  0.1180000E+00
       11   -1    0    0    0    0  0.00000000000E+00  0.00000000000E+00  0.11999999989E+02  0.12000000000E+02  0.51109989000E-03 0.  1.
     -623   -1    0    0    0    0  0.00000000000E+00  0.00000000000E+00  0.42561509872E-11  0.25126700000E+02  0.25126700000E+02 0. -1.
      622    2    1    2    0    0 -0.16763565764E+00  0.96378279159E-01  0.10109928292E+02  0.10112674304E+02  0.13468865750E+00 0.  0.
       11    1    1    2    0    0  0.15832217150E+00 -0.85329884156E-01  0.18787297768E+01  0.18873189806E+01  0.51109989000E-03 0.  1.
     -623    1    1    2    0    0  0.93134861367E-02 -0.11048395003E-01  0.11341920411E-01  0.25126706715E+02  0.25126700000E+02 0. -1.
     -611    1    3    3    0    0  0.73100924758E-03  0.59989476705E-01  0.33001805555E+01  0.33007409730E+01  0.10000000000E-01 0. -1.
      611    1    3    3    0    0 -0.16836666688E+00  0.36388802454E-01  0.68097477364E+01  0.68119333315E+01  0.10000000000E-01 0.  1.
</event>
<event>
 7   0  0.6206631E-02  0.9118800E+02  0.7818608E-02  0.1180000E+00
       11   -1    0    0    0    0  0.00000000000E+00  0.00000000000E+00  0.11999999989E+02  0.12000000000E+02  0.51109989000E-03 0.  1.
     -623   -1    0    0    0    0  0.00000000000E+00  0.00000000000E+00  0.42561509872E-11  0.25126700000E+02  0.25126700000E+02 0.  1.
      622    2    1    2    0    0 -0.20444731880E-03 -0.29275592989E-02  0.11957191945E+02  0.11957909357E+02  0.13095184717E+00 0.  0.
       11    1    1    2    0    0  0.29232312279E-02 -0.40071425601E-02  0.41793107484E-01  0.42089518037E-01  0.51109989000E-03 0.  1.
     -623    1    1    2    0    0 -0.27187839091E-02  0.69347018590E-02  0.10149369670E-02  0.25126701125E+02  0.25126700000E+02 0.  1.
     -611    1    3    3    0    0 -0.48345080121E-03 -0.45262073958E-02  0.11885507835E+02  0.11885512914E+02  0.10000000000E-01 0.  1.
      611    1    3    3    0    0  0.27900348240E-03  0.15986480969E-02  0.71684109595E-01  0.72396443885E-01  0.10000000000E-01 0.  1.
</event>
<event>
 7   0  0.6206631E-02  0.9118800E+02  0.7818608E-02  0.1180000E+00
       11   -1    0    0    0    0  0.00000000000E+00  0.00000000000E+00  0.11999999989E+02  0.12000000000E+02  0.51109989000E-03 0. -1.
     -623   -1    0    0    0    0  0.00000000000E+00  0.00000000000E+00  0.42561509872E-11  0.25126700000E+02  0.25126700000E+02 0.  1.
      622    2    1    2    0    0  0.11278403580E-02  0.77622090341E-02  0.11939167986E+02  0.11940048434E+02  0.14478562090E+00 0.  0.
       11    1    1    2    0    0 -0.68082388643E-02 -0.40032374598E-02  0.59425883582E-01  0.59950603743E-01  0.51109989000E-03 0. -1.
     -623    1    1    2    0    0  0.56803985063E-02 -0.37589715742E-02  0.14061195304E-02  0.25126700963E+02  0.25126700000E+02 0.  1.
     -611    1    3    3    0    0  0.47042884441E-01 -0.10433766222E-01  0.10274641831E+02  0.10274759688E+02  0.10000000000E-01 0. -1.
      611    1    3    3    0    0 -0.45915044083E-01  0.18195975256E-01  0.16645261548E+01  0.16652887452E+01  0.10000000000E-01 0.  1.
</event>
<event>
 7   0  0.6206631E-02  0.9118800E+02  0.7818608E-02  0.1180000E+00
       11   -1    0    0    0    0  0.00000000000E+00  0.00000000000E+00  0.11999999989E+02  0.12000000000E+02  0.51109989000E-03 0. -1.
     -623   -1    0    0    0    0  0.00000000000E+00  0.00000000000E+00  0.42561509872E-11  0.25126700000E+02  0.25126700000E+02 0. -1.
      622    2    1    2    0    0  0.55829156828E-01  0.24151845275E-01  0.72872419810E+01  0.72883716420E+01  0.11298361137E+00 0.  0.
       11    1    1    2    0    0 -0.44248098915E-01 -0.29534738960E-01  0.47113246926E+01  0.47116250716E+01  0.51109989000E-03 0. -1.
     -623    1    1    2    0    0 -0.11581057912E-01  0.53828936853E-02  0.14333155259E-02  0.25126703286E+02  0.25126700000E+02 0. -1.
     -611    1    3    3    0    0  0.70410900475E-01  0.55395965926E-01  0.57753073471E+01  0.57760108519E+01  0.10000000000E-01 0.  1.
      611    1    3    3    0    0 -0.14581743647E-01 -0.31244120651E-01  0.15119346338E+01  0.15123607901E+01  0.10000000000E-01 0. -1.
</event>
<event>
 7   0  0.6206631E-02  0.9118800E+02  0.7818608E-02  0.1180000E+00
       11   -1    0    0    0    0  0.00000000000E+00  0.00000000000E+00  0.11999999989E+02  0.12000000000E+02  0.51109989000E-03 0.  1.
     -623   -1    0    0    0    0  0.00000000000E+00  0.00000000000E+00  0.42561509872E-11  0.25126700000E+02  0.25126700000E+02 0. -1.
      622    2    1    2    0    0  0.15873265191E-02  0.95540354801E-01  0.10854330169E+02  0.10855134558E+02  0.91281836670E-01 0.  0.
       11    1    1    2    0    0 -0.22843353323E-01 -0.98361089477E-01  0.11403936507E+01  0.11448557388E+01  0.51109989000E-03 0.  1.
     -623    1    1    2    0    0  0.21256026804E-01  0.28207346757E-02  0.52761691441E-02  0.25126709703E+02  0.25126700000E+02 0. -1.
     -611    1    3    3    0    0  0.17665685683E-01 -0.10765265023E-01  0.25243511155E+01  0.25244556882E+01  0.10000000000E-01 0.  1.
      611    1    3    3    0    0 -0.16078359164E-01  0.10630561982E+00  0.83299790538E+01  0.83306788700E+01  0.10000000000E-01 0. -1.
</event>
<event>
 7   0  0.6206631E-02  0.9118800E+02  0.7818608E-02  0.1180000E+00
       11   -1    0    0    0    0  0.00000000000E+00  0.00000000000E+00  0.11999999989E+02  0.12000000000E+02  0.51109989000E-03 0. -1.
     -623   -1    0    0    0    0  0.00000000000E+00  0.00000000000E+00  0.42561509872E-11  0.25126700000E+02  0.25126700000E+02 0.  1.
      622    2    1    2    0    0 -0.31218904943E-01 -0.14497650756E+00  0.10602889051E+02  0.10604976324E+02  0.14924410371E+00 0.  0.
       11    1    1    2    0    0  0.42283232511E-01  0.16607090610E+00  0.13844431977E+01  0.13950091922E+01  0.51109989000E-03 0. -1.
     -623    1    1    2    0    0 -0.11064327568E-01 -0.21094398540E-01  0.12667740821E-01  0.25126714484E+02  0.25126700000E+02 0.  1.
     -611    1    3    3    0    0 -0.71454810820E-01 -0.15496128376E-01  0.33440370930E+01  0.33448512671E+01  0.10000000000E-01 0.  1.
      611    1    3    3    0    0  0.40235905877E-01 -0.12948037918E+00  0.72588519576E+01  0.72601250567E+01  0.10000000000E-01 0. -1.
</event>
<event>
 7   0  0.6206631E-02  0.9118800E+02  0.7818608E-02  0.1180000E+00
       11   -1    0    0    0    0  0.00000000000E+00  0.00000000000E+00  0.11999999989E+02  0.12000000000E+02  0.51109989000E-03 0.  1.
     -623   -1    0    0    0    0  0.00000000000E+00  0.00000000000E+00  0.42561509872E-11  0.25126700000E+02  0.25126700000E+02 0. -1.
      622    2    1    2    0    0  0.12455355193E+00  0.73584648934E-01  0.96736527621E+01  0.96752106394E+01  0.95994102495E-01 0.  0.
       11    1    1    2    0    0 -0.95717047032E-01 -0.94031131015E-02  0.23227001218E+01  0.23246905791E+01  0.51109989000E-03 0.  1.
     -623    1    1    2    0    0 -0.28836504901E-01 -0.64181535832E-01  0.36471052472E-02  0.25126798781E+02  0.25126700000E+02 0. -1.
     -611    1    3    3    0    0  0.12060254333E+00  0.53076078512E-01  0.58692219203E+01  0.58707093263E+01  0.10000000000E-01 0.  1.
      611    1    3    3    0    0  0.39510085997E-02  0.20508570422E-01  0.38044308418E+01  0.38045013131E+01  0.10000000000E-01 0. -1.
</event>
<event>
 7   0  0.6206631E-02  0.9118800E+02  0.7818608E-02  0.1180000E+00
       11   -1    0    0    0    0  0.00000000000E+00  0.00000000000E+00  0.11999999989E+02  0.12000000000E+02  0.51109989000E-03 0.  1.
     -623   -1    0    0    0    0  0.00000000000E+00  0.00000000000E+00  0.42561509872E-11  0.25126700000E+02  0.25126700000E+02 0.  1.
      622    2    1    2    0    0 -0.14805273474E-01  0.32234347455E-02  0.99829454847E+01  0.99830564830E+01  0.44571355604E-01 0.  0.
       11    1    1    2    0    0 -0.20939610773E-01 -0.40602436530E-01  0.20163727617E+01  0.20168902798E+01  0.51109989000E-03 0.  1.
     -623    1    1    2    0    0  0.35744884247E-01  0.37379001784E-01  0.68174262686E-03  0.25126753237E+02  0.25126700000E+02 0.  1.
     -611    1    3    3    0    0  0.95649134501E-02 -0.86048544252E-02  0.23569158877E+01  0.23569722172E+01  0.10000000000E-01 0. -1.
      611    1    3    3    0    0 -0.24370186924E-01  0.11828289171E-01  0.76260295970E+01  0.76260842658E+01  0.10000000000E-01 0.  1.
</event>
<event>
 7   0  0.6206631E-02  0.9118800E+02  0.7818608E-02  0.1180000E+00
       11   -1    0    0    0    0  0.00000000000E+00  0.00000000000E+00  0.11999999989E+02  0.12000000000E+02  0.51109989000E-03 0.  1.
     -623   -1    0    0    0    0  0.00000000000E+00  0.00000000000E+00  0.42561509872E-11  0.25126700000E+02  0.25126700000E+02 0. -1.
      622    2    1    2    0    0  0.58752189267E-01 -0.30019618190E-01  0.92237469778E+01  0.92254070243E+01  0.16209089011E+00 0.  0.
       11    1    1    2    0    0 -0.49453921193E-01  0.33989617247E-01  0.27739417907E+01  0.27745908353E+01  0.51109989000E-03 0.  1.
     -623    1    1    2    0    0 -0.92982680749E-02 -0.39699990571E-02  0.23112206875E-02  0.25126702140E+02  0.25126700000E+02 0. -1.
     -611    1    3    3    0    0 -0.44831426095E-01 -0.11989067397E-02  0.11219992572E+01  0.11229397256E+01  0.10000000000E-01 0. -1.
      611    1    3    3    0    0  0.10358361536E+00 -0.28820711450E-01  0.81017477206E+01  0.81024672987E+01  0.10000000000E-01 0.  1.
</event>
<event>
 7   0  0.6206631E-02  0.9118800E+02  0.7818608E-02  0.1180000E+00
       11   -1    0    0    0    0  0.00000000000E+00  0.00000000000E+00  0.11999999989E+02  0.12000000000E+02  0.51109989000E-03 0.  1.
     -623   -1    0    0    0    0  0.00000000000E+00  0.00000000000E+00  0.42561509872E-11  0.25126700000E+02  0.25126700000E+02 0.  1.
      622    2    1    2    0    0  0.83296861804E-02 -0.98601413111E-03  0.11949240011E+02  0.11949496698E+02  0.77872502730E-01 0.  0.
       11    1    1    2    0    0 -0.79026515661E-02  0.11376716074E-02  0.49865560023E-01  0.50503282052E-01  0.51109989000E-03 0.  1.
     -623    1    1    2    0    0 -0.42703461421E-03 -0.15165747626E-03  0.89441763331E-03  0.25126700020E+02  0.25126700000E+02 0.  1.
     -611    1    3    3    0    0 -0.23023839699E-02  0.55427803117E-02  0.11439544684E+02  0.11439550629E+02  0.10000000000E-01 0.  1.
      611    1    3    3    0    0  0.10632070150E-01 -0.65287944429E-02  0.50969532782E+00  0.50994606899E+00  0.10000000000E-01 0. -1.
</event>
<event>
 7   0  0.6206631E-02  0.9118800E+02  0.7818608E-02  0.1180000E+00
       11   -1    0    0    0    0  0.00000000000E+00  0.00000000000E+00  0.11999999989E+02  0.12000000000E+02  0.51109989000E-03 0. -1.
     -623   -1    0    0    0    0  0.00000000000E+00  0.00000000000E+00  0.42561509872E-11  0.25126700000E+02  0.25126700000E+02 0. -1.
      622    2    1    2    0    0  0.39155471863E-01 -0.20767185017E-01  0.73284702812E+01  0.73296621192E+01  0.12452185421E+00 0.  0.
       11    1    1    2    0    0 -0.36281660407E-01  0.21531331157E-01  0.46701470752E+01  0.46703376669E+01  0.51109989000E-03 0. -1.
     -623    1    1    2    0    0 -0.28738114555E-02 -0.76414614051E-03  0.13826327601E-02  0.25126700214E+02  0.25126700000E+02 0. -1.
     -611    1    3    3    0    0  0.17067863691E-01 -0.49654951689E-01  0.65998407875E+01  0.66000572230E+01  0.10000000000E-01 0. -1.
      611    1    3    3    0    0  0.22087608171E-01  0.28887766672E-01  0.72862949367E+00  0.72960489619E+00  0.10000000000E-01 0.  1.
</event>
<event>
 7   0  0.6206631E-02  0.9118800E+02  0.7818608E-02  0.1180000E+00
       11   -1    0    0    0    0  0.00000000000E+00  0.00000000000E+00  0.11999999989E+02  0.12000000000E+02  0.51109989000E-03 0. -1.
     -623   -1    0    0    0    0  0.00000000000E+00  0.00000000000E+00  0.42561509872E-11  0.25126700000E+02  0.25126700000E+02 0. -1.
      622    2    1    2    0    0  0.34955726041E-01 -0.33755181305E-01  0.71855888003E+01  0.71874052089E+01  0.15409709589E+00 0.  0.
       11    1    1    2    0    0 -0.79335177364E-01 -0.75472487190E-01  0.48110720010E+01  0.48123179682E+01  0.51109989000E-03 0. -1.
     -623    1    1    2    0    0  0.44379451323E-01  0.10922766849E+00  0.33391878080E-02  0.25126976823E+02  0.25126700000E+02 0. -1.
     -611    1    3    3    0    0  0.62279941746E-01 -0.70933933084E-01  0.61589677379E+01  0.61596991818E+01  0.10000000000E-01 0. -1.
      611    1    3    3    0    0 -0.27324215706E-01  0.37178751779E-01  0.10266210624E+01  0.10277060271E+01  0.10000000000E-01 0.  1.
</event>
<event>
 7   0  0.6206631E-02  0.9118800E+02  0.7818608E-02  0.1180000E+00
       11   -1    0    0    0    0  0.00000000000E+00  0.00000000000E+00  0.11999999989E+02  0.12000000000E+02  0.51109989000E-03 0.  1.
     -623   -1    0    0    0    0  0.00000000000E+00  0.00000000000E+00  0.42561509872E-11  0.25126700000E+02  0.25126700000E+02 0. -1.
      622    2    1    2    0    0 -0.13323304310E-02  0.74325332620E-03  0.11988946291E+02  0.11989385233E+02  0.10258055249E+00 0.  0.
       11    1    1    2    0    0  0.90166857688E-03 -0.20991802529E-03  0.10561944744E-01  0.10614752553E-01  0.51109989000E-03 0.  1.
     -623    1    1    2    0    0  0.43066185416E-03 -0.53333530091E-03  0.49175311142E-03  0.25126700014E+02  0.25126700000E+02 0. -1.
     -611    1    3    3    0    0  0.21273272731E-01 -0.30207880797E-01  0.98367248868E+01  0.98367993558E+01  0.10000000000E-01 0.  1.
      611    1    3    3    0    0 -0.22605603162E-01  0.30951134124E-01  0.21522214045E+01  0.21525858775E+01  0.10000000000E-01 0. -1.
</event>
<event>
 7   0  0.6206631E-02  0.9118800E+02  0.7818608E-02  0.1180000E+00
       11   -1    0    0    0    0  0.00000000000E+00  0.00000000000E+00  0.11999999989E+02  0.12000000000E+02  0.51109989000E-03 0.  1.
     -623   -1    0    0    0    0  0.00000000000E+00  0.00000000000E+00  0.42561509872E-11  0.25126700000E+02  0.25126700000E+02 0. -1.
      622    2    1    2    0    0 -0.78535325228E-02 -0.12903886520E-01  0.80605782457E+01  0.80610879710E+01  0.89383625692E-01 0.  0.
       11    1    1    2    0    0 -0.25493097546E-02  0.26489364410E-01  0.39388162651E+01  0.39389061955E+01  0.51109989000E-03 0.  1.
     -623    1    1    2    0    0  0.10402842277E-01 -0.13585477890E-01  0.60547823973E-03  0.25126705833E+02  0.25126700000E+02 0. -1.
     -611    1    3    3    0    0 -0.19364162939E-01 -0.41921446508E-01  0.64671459429E+01  0.64673185344E+01  0.10000000000E-01 0.  1.
      611    1    3    3    0    0  0.11510630416E-01  0.29017559989E-01  0.15934323028E+01  0.15937694366E+01  0.10000000000E-01 0. -1.
</event>
<event>
 7   0  0.6206631E-02  0.9118800E+02  0.7818608E-02  0.1180000E+00
       11   -1    0    0    0    0  0.00000000000E+00  0.00000000000E+00  0.11999999989E+02  0.12000000000E+02  0.51109989000E-03 0.  1.
     -623   -1    0    0    0    0  0.00000000000E+00  0.00000000000E+00  0.42561509872E-11  0.25126700000E+02  0.25126700000E+02 0.  1.
      622    2    1    2    0    0 -0.31663828283E-01  0.95766203518E-02  0.11410467534E+02  0.11410958121E+02  0.10050663335E+00 0.  0.
       11    1    1    2    0    0  0.31356456686E-01 -0.55449277569E-02  0.58817996734E+00  0.58904151705E+00  0.51109989000E-03 0.  1.
     -623    1    1    2    0    0  0.30737159645E-03 -0.40316925949E-02  0.13524874814E-02  0.25126700362E+02  0.25126700000E+02 0.  1.
     -611    1    3    3    0    0  0.28323615923E-01 -0.37847477278E-02  0.15596652724E+01  0.15599590742E+01  0.10000000000E-01 0.  1.
      611    1    3    3    0    0 -0.59987444205E-01  0.13361368080E-01  0.98508022619E+01  0.98509990470E+01  0.10000000000E-01 0. -1.
</event>
<event>
 7   0  0.6206631E-02  0.9118800E+02  0.7818608E-02  0.1180000E+00
       11   -1    0    0    0    0  0.00000000000E+00  0.00000000000E+00  0.11999999989E+02  0.12000000000E+02  0.51109989000E-03 0. -1.
     -623   -1    0    0    0    0  0.00000000000E+00  0.00000000000E+00  0.42561509872E-11  0.25126700000E+02  0.25126700000E+02 0. -1.
      622    2    1    2    0    0  0.16471347094E-01  0.47434129644E-02  0.95507896447E+01  0.95515076723E+01  0.11585408966E+00 0.  0.
       11    1    1    2    0    0 -0.21845591395E-01  0.36318234157E-01  0.24480912849E+01  0.24484581770E+01  0.51109989000E-03 0. -1.
     -623    1    1    2    0    0  0.53742443005E-02 -0.41061647122E-01  0.11190595027E-02  0.25126734151E+02  0.25126700000E+02 0. -1.
     -611    1    3    3    0    0  0.43187838388E-02  0.58219104139E-01  0.40060385099E+01  0.40064763395E+01  0.10000000000E-01 0. -1.
      611    1    3    3    0    0  0.12152563255E-01 -0.53475691175E-01  0.55447511349E+01  0.55450313328E+01  0.10000000000E-01 0.  1.
</event>
<event>
 7   0  0.6206631E-02  0.9118800E+02  0.7818608E-02  0.1180000E+00
       11   -1    0    0    0    0  0.00000000000E+00  0.00000000000E+00  0.11999999989E+02  0.12000000000E+02  0.51109989000E-03 0. -1.
     -623   -1    0    0    0    0  0.00000000000E+00  0.00000000000E+00  0.42561509872E-11  0.25126700000E+02  0.25126700000E+02 0.  1.
      622    2    1    2    0    0  0.26293432892E-02 -0.31106015343E-02  0.11574436266E+02  0.11575279610E+02  0.13966592149E+00 0.  0.
       11    1    1    2    0    0 -0.34522594967E-02  0.32209802073E-02  0.42469380922E+00  0.42472036168E+00  0.51109989000E-03 0. -1.
     -623    1    1    2    0    0  0.82291620744E-03 -0.11037867302E-03  0.86991370134E-03  0.25126700029E+02  0.25126700000E+02 0.  1.
     -611    1    3    3    0    0  0.32149013450E-01 -0.57930974127E-01  0.80530265183E+01  0.80533052632E+01  0.10000000000E-01 0. -1.
      611    1    3    3    0    0 -0.29519670160E-01  0.54820372592E-01  0.35214097479E+01  0.35219743464E+01  0.10000000000E-01 0.  1.
</event>
<event>
 7   0  0.6206631E-02  0.9118800E+02  0.7818608E-02  0.1180000E+00
       11   -1    0    0    0    0  0.00000000000E+00  0.00000000000E+00  0.11999999989E+02  0.12000000000E+02  0.51109989000E-03 0. -1.
     -623   -1    0    0    0    0  0.00000000000E+00  0.00000000000E+00  0.42561509872E-11  0.25126700000E+02  0.25126700000E+02 0.  1.
      622    2    1    2    0    0 -0.15974439022E-01 -0.36618637801E-02  0.99734170804E+01  0.99737087696E+01  0.74496775115E-01 0.  0.
       11    1    1    2    0    0  0.10057236843E-01 -0.27390524859E-02  0.20262628415E+01  0.20262897163E+01  0.51109989000E-03 0. -1.
     -623    1    1    2    0    0  0.59172021785E-02  0.64009162661E-02  0.32006723509E-03  0.25126701514E+02  0.25126700000E+02 0.  1.
     -611    1    3    3    0    0 -0.37592214451E-01  0.13271896848E-01  0.37948621503E+01  0.37950847233E+01  0.10000000000E-01 0.  1.
      611    1    3    3    0    0  0.21617775430E-01 -0.16933760628E-01  0.61785549301E+01  0.61786240463E+01  0.10000000000E-01 0. -1.
</event>
<event>
 7   0  0.6206631E-02  0.9118800E+02  0.7818608E-02  0.1180000E+00
       11   -1    0    0    0    0  0.00000000000E+00  0.00000000000E+00  0.11999999989E+02  0.12000000000E+02  0.51109989000E-03 0.  1.
     -623   -1    0    0    0    0  0.00000000000E+00  0.00000000000E+00  0.42561509872E-11  0.25126700000E+02  0.25126700000E+02 0.  1.
      622    2    1    2    0    0  0.33226574279E-03  0.20756189518E-02  0.11987250489E+02  0.11987542104E+02  0.83588335981E-01 0.  0.
       11    1    1    2    0    0 -0.12385664347E-02 -0.15800749779E-02  0.12284405422E-01  0.12457869941E-01  0.51109989000E-03 0.  1.
     -623    1    1    2    0    0  0.90630069192E-03 -0.49554397390E-03  0.46509498229E-03  0.25126700026E+02  0.25126700000E+02 0.  1.
     -611    1    3    3    0    0  0.46838614351E-02  0.33131544240E-01  0.26074648295E+01  0.26076986932E+01  0.10000000000E-01 0.  1.
      611    1    3    3    0    0 -0.43515956923E-02 -0.31055925288E-01  0.93797856592E+01  0.93798434112E+01  0.10000000000E-01 0.  1.
</event>
<event>
 7   0  0.6206631E-02  0.9118800E+02  0.7818608E-02  0.1180000E+00
       11   -1    0    0    0    0  0.00000000000E+00  0.00000000000E+00  0.11999999989E+02  0.12000000000E+02  0.51109989000E-03 0. -1.
     -623   -1    0    0    0    0  0.00000000000E+00  0.00000000000E+00  0.42561509872E-11  0.25126700000E+02  0.25126700000E+02 0.  1.
      622    2    1    2    0    0  0.14003399157E-02  0.21868535606E-01  0.10921906312E+02  0.10922396310E+02  0.10111115764E+00 0.  0.
       11    1    1    2    0    0  0.31485756760E-02 -0.42200969368E-01  0.10767636337E+01  0.10775950164E+01  0.51109989000E-03 0. -1.
     -623    1    1    2    0    0 -0.45489155917E-02  0.20332433763E-01  0.13300430674E-02  0.25126708673E+02  0.25126700000E+02 0.  1.
     -611    1    3    3    0    0 -0.40977335522E-01  0.19806575832E-01  0.29247135679E+01  0.29250847675E+01  0.10000000000E-01 0. -1.
      611    1    3    3    0    0  0.42377675437E-01  0.20619597734E-02  0.79971927444E+01  0.79973115426E+01  0.10000000000E-01 0.  1.
</event>
<event>
 7   0  0.6206631E-02  0.9118800E+02  0.7818608E-02  0.1180000E+00
       11   -1    0    0    0    0  0.00000000000E+00  0.00000000000E+00  0.11999999989E+02  0.12000000000E+02  0.51109989000E-03 0.  1.
     -623   -1    0    0    0    0  0.00000000000E+00  0.00000000000E+00  0.42561509872E-11  0.25126700000E+02  0.25126700000E+02 0. -1.
      622    2    1    2    0    0 -0.27887638396E-03  0.25334341763E-02  0.11937771891E+02  0.11938202760E+02  0.10139483287E+00 0.  0.
       11    1    1    2    0    0 -0.10396984202E-02 -0.30234094446E-02  0.61712318034E-01  0.61797195711E-01  0.51109989000E-03 0.  1.
     -623    1    1    2    0    0  0.13185748041E-02  0.48997526836E-03  0.51578008299E-03  0.25126700045E+02  0.25126700000E+02 0. -1.
     -611    1    3    3    0    0 -0.39300362978E-01  0.30676164319E-01  0.50662057844E+01  0.50664609537E+01  0.10000000000E-01 0. -1.
      611    1    3    3    0    0  0.39021486594E-01 -0.28142730142E-01  0.68715661066E+01  0.68717418059E+01  0.10000000000E-01 0.  1.
</event>
<event>
 7   0  0.6206631E-02  0.9118800E+02  0.7818608E-02  0.1180000E+00
       11   -1    0    0    0    0  0.00000000000E+00  0.00000000000E+00  0.11999999989E+02  0.12000000000E+02  0.51109989000E-03 0.  1.
     -623   -1    0    0    0    0  0.00000000000E+00  0.00000000000E+00  0.42561509872E-11  0.25126700000E+02  0.25126700000E+02 0.  1.
      622    2    1    2    0    0 -0.94650261060E-02 -0.95374090109E-02  0.11839593351E+02  0.11840946776E+02  0.17851972291E+00 0.  0.
       11    1    1    2    0    0 -0.25732920679E-02  0.34047909200E-02  0.15899145975E+00  0.15904955181E+00  0.51109989000E-03 0.  1.
     -623    1    1    2    0    0  0.12038318174E-01  0.61326180909E-02  0.14151784484E-02  0.25126703672E+02  0.25126700000E+02 0.  1.
     -611    1    3    3    0    0 -0.53090246877E-01 -0.55776888291E-01  0.26732524707E+01  0.26743800044E+01  0.10000000000E-01 0. -1.
      611    1    3    3    0    0  0.43625220771E-01  0.46239479280E-01  0.91663408802E+01  0.91665667718E+01  0.10000000000E-01 0.  1.
</event>
<event>
 7   0  0.6206631E-02  0.9118800E+02  0.7818608E-02  0.1180000E+00
       11   -1    0    0    0    0  0.00000000000E+00  0.00000000000E+00  0.11999999989E+02  0.12000000000E+02  0.51109989000E-03 0.  1.
     -623   -1    0    0    0    0  0.00000000000E+00  0.00000000000E+00  0.42561509872E-11  0.25126700000E+02  0.25126700000E+02 0.  1.
      622    2    1    2    0    0  0.10662310541E+00 -0.26940030687E-01  0.78071349383E+01  0.78083640272E+01  0.84253091796E-01 0.  0.
       11    1    1    2    0    0 -0.13418419332E+00 -0.19382003501E-01  0.41893846948E+01  0.41915779180E+01  0.51109989000E-03 0.  1.
     -623    1    1    2    0    0  0.27561087911E-01  0.46322034188E-01  0.34803559312E-02  0.25126758055E+02  0.25126700000E+02 0.  1.
     -611    1    3    3    0    0  0.10298043808E+00 -0.11027013509E-01  0.74421668753E+01  0.74428942196E+01  0.10000000000E-01 0.  1.
      611    1    3    3    0    0  0.36426673220E-02 -0.15913017178E-01  0.36496806308E+00  0.36546980752E+00  0.10000000000E-01 0.  1.
</event>
<event>
 6   0  0.6206631E-02  0.9118800E+02  0.7818608E-02  0.1180000E+00
       11   -1    0    0    0    0  0.00000000000E+00  0.00000000000E+00  0.11999999989E+02  0.12000000000E+02  0.51109989000E-03 0. -1.
     -623   -1    0    0    0    0  0.00000000000E+00  0.00000000000E+00  0.42561509872E-11  0.25126700000E+02  0.25126700000E+02 0. -1.
       11    1    1    2    0    0 -0.14876374138E+00  0.44562122712E-01  0.42133121221E+01  0.42161731146E+01  0.51109989000E-03 0. -1.
     -623    1    1    2    0    0 -0.10006188401E-01 -0.42356330400E-01  0.71359244520E-02  0.25126738706E+02  0.25126700000E+02 0. -1.
     -611    1    1    2    0    0  0.54331915301E-01 -0.31718405302E-01  0.62634379851E+01  0.62637619213E+01  0.10000000000E-01 0. -1.
      611    1    1    2    0    0  0.10443801448E+00  0.29512612990E-01  0.15161139575E+01  0.15200262581E+01  0.10000000000E-01 0.  1.
</event>
<event>
 7   0  0.6206631E-02  0.9118800E+02  0.7818608E-02  0.1180000E+00
       11   -1    0    0    0    0  0.00000000000E+00  0.00000000000E+00  0.11999999989E+02  0.12000000000E+02  0.51109989000E-03 0. -1.
     -623   -1    0    0    0    0  0.00000000000E+00  0.00000000000E+00  0.42561509872E-11  0.25126700000E+02  0.25126700000E+02 0. -1.
      622    2    1    2    0    0  0.48523700181E-02 -0.49178469173E-03  0.11834986994E+02  0.11835493395E+02  0.10937526546E+00 0.  0.
       11    1    1    2    0    0 -0.67379024689E-03 -0.19188417424E-03  0.16450395781E+00  0.16450624356E+00  0.51109989000E-03 0. -1.
     -623    1    1    2    0    0 -0.41785797712E-02  0.68366886597E-03  0.50903698120E-03  0.25126700362E+02  0.25126700000E+02 0. -1.
     -611    1    3    3    0    0 -0.17991852812E-02 -0.12937082539E-03  0.10295265780E+00  0.10345290500E+00  0.10000000000E-01 0. -1.
      611    1    3    3    0    0  0.66515552993E-02 -0.36241386634E-03  0.11732034337E+02  0.11732040490E+02  0.10000000000E-01 0. -1.
</event>
<event>
 7   0  0.6206631E-02  0.9118800E+02  0.7818608E-02  0.1180000E+00
       11   -1    0    0    0    0  0.00000000000E+00  0.00000000000E+00  0.11999999989E+02  0.12000000000E+02  0.51109989000E-03 0.  1.
     -623   -1    0    0    0    0  0.00000000000E+00  0.00000000000E+00  0.42561509872E-11  0.25126700000E+02  0.25126700000E+02 0.  1.
      622    2    1    2    0    0  0.25132217012E-02 -0.16009898418E-01  0.11772218091E+02  0.11772742073E+02  0.10988397769E+00 0.  0.
       11    1    1    2    0    0 -0.55626373335E-02  0.85849502058E-02  0.22702570818E+00  0.22725663401E+00  0.51109989000E-03 0.  1.
     -623    1    1    2    0    0  0.30494156323E-02  0.74249482122E-02  0.75618982876E-03  0.25126701293E+02  0.25126700000E+02 0.  1.
     -611    1    3    3    0    0  0.26625793264E-02 -0.26413251991E-01  0.78180105328E+00  0.78231556045E+00  0.10000000000E-01 0. -1.
      611    1    3    3    0    0 -0.14935762517E-03  0.10403353573E-01  0.10990417038E+02  0.10990426512E+02  0.10000000000E-01 0.  1.
</event>
<event>
 7   0  0.6206631E-02  0.9118800E+02  0.7818608E-02  0.1180000E+00
       11   -1    0    0    0    0  0.00000000000E+00  0.00000000000E+00  0.11999999989E+02  0.12000000000E+02  0.51109989000E-03 0.  1.
     -623   -1    0    0    0    0  0.00000000000E+00  0.00000000000E+00  0.42561509872E-11  0.25126700000E+02  0.25126700000E+02 0. -1.
      622    2    1    2    0    0  0.78977981147E-02  0.16327040647E-01  0.10880975604E+02  0.10881240217E+02  0.73686065886E-01 0.  0.
       11    1    1    2    0    0  0.10441542203E-01 -0.20662259838E-01  0.11185130359E+01  0.11187527106E+01  0.51109989000E-03 0.  1.
     -623    1    1    2    0    0 -0.18339340318E-01  0.43352191914E-02  0.51134957689E-03  0.25126707072E+02  0.25126700000E+02 0. -1.
     -611    1    3    3    0    0 -0.35151681830E-02  0.22479871062E-01  0.10309805473E+02  0.10309835430E+02  0.10000000000E-01 0.  1.
      611    1    3    3    0    0  0.11412966298E-01 -0.61528304151E-02  0.57117013096E+00  0.57140478789E+00  0.10000000000E-01 0.  1.
</event>
<event>
 7   0  0.6206631E-02  0.9118800E+02  0.7818608E-02  0.1180000E+00
       11   -1    0    0    0    0  0.00000000000E+00  0.00000000000E+00  0.11999999989E+02  0.12000000000E+02  0.51109989000E-03 0. -1.
     -623   -1    0    0    0    0  0.00000000000E+00  0.00000000000E+00  0.42561509872E-11  0.25126700000E+02  0.25126700000E+02 0.  1.
      622    2    1    2    0    0  0.20765972021E-02 -0.91449357366E-02  0.11686731608E+02  0.11687172340E+02  0.10106278578E+00 0.  0.
       11    1    1    2    0    0  0.52073611945E-02  0.94214099850E-02  0.31264090870E+00  0.31282659509E+00  0.51109989000E-03 0. -1.
     -623    1    1    2    0    0 -0.72839583966E-02 -0.27647424847E-03  0.62747268863E-03  0.25126701065E+02  0.25126700000E+02 0.  1.
     -611    1    3    3    0    0  0.13116497234E-01  0.38584265271E-01  0.29590220402E+01  0.29593195540E+01  0.10000000000E-01 0.  1.
      611    1    3    3    0    0 -0.11039900032E-01 -0.47729201008E-01  0.87277095675E+01  0.87278527858E+01  0.10000000000E-01 0. -1.
</event>
<event>
 7   0  0.6206631E-02  0.9118800E+02  0.7818608E-02  0.1180000E+00
       11   -1    0    0    0    0  0.00000000000E+00  0.00000000000E+00  0.11999999989E+02  0.12000000000E+02  0.51109989000E-03 0.  1.
     -623   -1    0    0    0    0  0.00000000000E+00  0.00000000000E+00  0.42561509872E-11  0.25126700000E+02  0.25126700000E+02 0. -1.
      622    2    1    2    0    0 -0.57773569531E-02  0.11118479905E-01  0.11912594658E+02  0.11912950134E+02  0.91172380370E-01 0.  0.
       11    1    1    2    0    0  0.75067905910E-02 -0.83979634793E-02  0.86316279945E-01  0.87049635854E-01  0.51109989000E-03 0.  1.
     -623    1    1    2    0    0 -0.17294336380E-02 -0.27205164256E-02  0.10890510902E-02  0.25126700230E+02  0.25126700000E+02 0. -1.
     -611    1    3    3    0    0  0.35559101933E-01 -0.84419566819E-04  0.83845563465E+01  0.83846377134E+01  0.10000000000E-01 0.  1.
      611    1    3    3    0    0 -0.41336458886E-01  0.11202899472E-01  0.35280383115E+01  0.35283124203E+01  0.10000000000E-01 0.  1.
</event>
<event>
 7   0  0.6206631E-02  0.9118800E+02  0.7818608E-02  0.1180000E+00
       11   -1    0    0    0    0  0.00000000000E+00  0.00000000000E+00  0.11999999989E+02  0.12000000000E+02  0.51109989000E-03 0. -1.
     -623   -1    0    0    0    0  0.00000000000E+00  0.00000000000E+00  0.42561509872E-11  0.25126700000E+02  0.25126700000E+02 0. -1.
      622    2    1    2    0    0  0.76572119340E-01  0.83194903437E-02  0.67432053116E+01  0.67445590479E+01  0.11102419531E+00 0.  0.
       11    1    1    2    0    0 -0.59264854935E-01 -0.31243328772E-01  0.52549973960E+01  0.52554244702E+01  0.51109989000E-03 0. -1.
     -623    1    1    2    0    0 -0.17307264405E-01  0.22923838428E-01  0.17972814819E-02  0.25126716482E+02  0.25126700000E+02 0. -1.
     -611    1    3    3    0    0  0.73583950526E-01  0.41316833777E-02  0.66763679694E+01  0.66767822288E+01  0.10000000000E-01 0.  1.
      611    1    3    3    0    0  0.29881688134E-02  0.41878069660E-02  0.66837342256E-01  0.67776819045E-01  0.10000000000E-01 0.  1.
</event>
<event>
 7   0  0.6206631E-02  0.9118800E+02  0.7818608E-02  0.1180000E+00
       11   -1    0    0    0    0  0.00000000000E+00  0.00000000000E+00  0.11999999989E+02  0.12000000000E+02  0.51109989000E-03 0. -1.
     -623   -1    0    0    0    0  0.00000000000E+00  0.00000000000E+00  0.42561509872E-11  0.25126700000E+02  0.25126700000E+02 0.  1.
      622    2    1    2    0    0 -0.16175417926E-01  0.28989225324E-02  0.93725869015E+01  0.93730277931E+01  0.89413288628E-01 0.  0.
       11    1    1    2    0    0 -0.56407886770E-01  0.28011078223E-01  0.26260931801E+01  0.26268483249E+01  0.51109989000E-03 0. -1.
     -623    1    1    2    0    0  0.72583304696E-01 -0.30910000756E-01  0.13199075001E-02  0.25126823882E+02  0.25126700000E+02 0.  1.
     -611    1    3    3    0    0 -0.37880589624E-01  0.97428466456E-02  0.84765310364E+01  0.84766271755E+01  0.10000000000E-01 0. -1.
      611    1    3    3    0    0  0.21705171698E-01 -0.68439241131E-02  0.89605586508E+00  0.89640061754E+00  0.10000000000E-01 0.  1.
</event>
<event>
 7   0  0.6206631E-02  0.9118800E+02  0.7818608E-02  0.1180000E+00
       11   -1    0    0    0    0  0.00000000000E+00  0.00000000000E+00  0.11999999989E+02  0.12000000000E+02  0.51109989000E-03 0.  1.
     -623   -1    0    0    0    0  0.00000000000E+00  0.00000000000E+00  0.42561509872E-11  0.25126700000E+02  0.25126700000E+02 0. -1.
      622    2    1    2    0    0 -0.31031033145E-02  0.18083797737E-02  0.11997128462E+02  0.11997496211E+02  0.93867432576E-01 0.  0.
       11    1    1    2    0    0 -0.11258229812E-02 -0.23891963835E-03  0.21635847898E-02  0.25033741718E-02  0.51109989000E-03 0.  1.
     -623    1    1    2    0    0  0.42289262957E-02 -0.15694601354E-02  0.70794216170E-03  0.25126700415E+02  0.25126700000E+02 0. -1.
     -611    1    3    3    0    0  0.30813803850E-01  0.39006689466E-02  0.10002653844E+02  0.10002707065E+02  0.10000000000E-01 0.  1.
      611    1    3    3    0    0 -0.33916907164E-01 -0.20922891728E-02  0.19944746180E+01  0.19947891458E+01  0.10000000000E-01 0. -1.
</event>
<event>
 7   0  0.6206631E-02  0.9118800E+02  0.7818608E-02  0.1180000E+00
       11   -1    0    0    0    0  0.00000000000E+00  0.00000000000E+00  0.11999999989E+02  0.12000000000E+02  0.51109989000E-03 0.  1.
     -623   -1    0    0    0    0  0.00000000000E+00  0.00000000000E+00  0.42561509872E-11  0.25126700000E+02  0.25126700000E+02 0.  1.
      622    2    1    2    0    0 -0.33263755950E-02 -0.22104914684E-01  0.80450501365E+01  0.80453377704E+01  0.64253008844E-01 0.  0.
       11    1    1    2    0    0 -0.15956140358E-01  0.11095078463E-01  0.39546046292E+01  0.39546524163E+01  0.51109989000E-03 0.  1.
     -623    1    1    2    0    0  0.19282515953E-01  0.11009836220E-01  0.34522340862E-03  0.25126709813E+02  0.25126700000E+02 0.  1.
     -611    1    3    3    0    0  0.22364432151E-01 -0.10411353506E-01  0.60912013403E+01  0.60912595030E+01  0.10000000000E-01 0.  1.
      611    1    3    3    0    0 -0.25690807746E-01 -0.11693561177E-01  0.19538487961E+01  0.19540782674E+01  0.10000000000E-01 0.  1.
</event>
<event>
 7   0  0.6206631E-02  0.9118800E+02  0.7818608E-02  0.1180000E+00
       11   -1    0    0    0    0  0.00000000000E+00  0.00000000000E+00  0.11999999989E+02  0.12000000000E+02  0.51109989000E-03 0. -1.
     -623   -1    0    0    0    0  0.00000000000E+00  0.00000000000E+00  0.42561509872E-11  0.25126700000E+02  0.25126700000E+02 0.  1.
      622    2    1    2    0    0 -0.12410432875E-01 -0.21826153324E+00  0.10083193336E+02  0.10086030230E+02  0.97086687622E-01 0.  0.
       11    1    1    2    0    0 -0.20322958221E-01  0.19372312717E+00  0.19039953688E+01  0.19139332011E+01  0.51109989000E-03 0. -1.
     -623    1    1    2    0    0  0.32733391096E-01  0.24538406073E-01  0.12811284373E-01  0.25126736569E+02  0.25126700000E+02 0.  1.
     -611    1    3    3    0    0 -0.15098392998E-01 -0.73156861740E-02  0.34908531313E+00  0.34963128662E+00  0.10000000000E-01 0.  1.
      611    1    3    3    0    0  0.26879601238E-02 -0.21094584706E+00  0.97341080228E+01  0.97363989429E+01  0.10000000000E-01 0. -1.
</event>
<event>
 7   0  0.6206631E-02  0.9118800E+02  0.7818608E-02  0.1180000E+00
       11   -1    0    0    0    0  0.00000000000E+00  0.00000000000E+00  0.11999999989E+02  0.12000000000E+02  0.51109989000E-03 0.  1.
     -623   -1    0    0    0    0  0.00000000000E+00  0.00000000000E+00  0.42561509872E-11  0.25126700000E+02  0.25126700000E+02 0.  1.
      622    2    1    2    0    0 -0.12379675089E-01 -0.34145398069E-02  0.42877658172E+01  0.42889948458E+01  0.10186348115E+00 0.  0.
       11    1    1    2    0    0  0.56298288028E-03  0.17736567568E-02  0.77110020504E+01  0.77110022918E+01  0.51109989000E-03 0.  1.
     -623    1    1    2    0    0  0.11816692209E-01  0.16408830501E-02  0.12321215943E-02  0.25126702862E+02  0.25126700000E+02 0.  1.
     -611    1    3    3    0    0  0.19370821867E-01 -0.40015476277E-02  0.38124613917E+01  0.38125258168E+01  0.10000000000E-01 0. -1.
      611    1    3    3    0    0 -0.31750496957E-01  0.58700782076E-03  0.47530442550E+00  0.47646902894E+00  0.10000000000E-01 0. -1.
</event>
<event>
 7   0  0.6206631E-02  0.9118800E+02  0.7818608E-02  0.1180000E+00
       11   -1    0    0    0    0  0.00000000000E+00  0.00000000000E+00  0.11999999989E+02  0.12000000000E+02  0.51109989000E-03 0.  1.
     -623   -1    0    0    0    0  0.00000000000E+00  0.00000000000E+00  0.42561509872E-11  0.25126700000E+02  0.25126700000E+02 0. -1.
      622    2    1    2    0    0 -0.15338578814E-02  0.19594067072E-01  0.11764622159E+02  0.11765124148E+02  0.10688958240E+00 0.  0.
       11    1    1    2    0    0 -0.53211020772E-03 -0.19642510993E-01  0.23405178282E+00  0.23487573234E+00  0.51109989000E-03 0.  1.
     -623    1    1    2    0    0  0.20659680892E-02  0.48443921258E-04  0.13260471551E-02  0.25126700120E+02  0.25126700000E+02 0. -1.
     -611    1    3    3    0    0 -0.20168611447E-01  0.46984695916E-03  0.10915813783E+02  0.10915837006E+02  0.10000000000E-01 0.  1.
      611    1    3    3    0    0  0.18634753566E-01  0.19124220113E-01  0.84880837647E+00  0.84928714214E+00  0.10000000000E-01 0. -1.
</event>
<event>
 7   0  0.6206631E-02  0.9118800E+02  0.7818608E-02  0.1180000E+00
       11   -1    0    0    0    0  0.00000000000E+00  0.00000000000E+00  0.11999999989E+02  0.12000000000E+02  0.51109989000E-03 0. -1.
     -623   -1    0    0    0    0  0.00000000000E+00  0.00000000000E+00  0.42561509872E-11  0.25126700000E+02  0.25126700000E+02 0. -1.
      622    2    1    2    0    0 -0.10111457552E-02 -0.14469056278E-01  0.11713927131E+02  0.11714339631E+02  0.97230665846E-01 0.  0.
       11    1    1    2    0    0  0.29230313825E-02  0.15248867659E-01  0.28523754408E+00  0.28566026999E+00  0.51109989000E-03 0. -1.
     -623    1    1    2    0    0 -0.19118856272E-02 -0.77981138145E-03  0.83531454047E-03  0.25126700099E+02  0.25126700000E+02 0. -1.
     -611    1    3    3    0    0 -0.44914784013E-01 -0.17880012692E-01  0.77058476355E+01  0.77060057627E+01  0.10000000000E-01 0. -1.
      611    1    3    3    0    0  0.43903638258E-01  0.34109564141E-02  0.40080794950E+01  0.40083338686E+01  0.10000000000E-01 0.  1.
</event>
<event>
 7   0  0.6206631E-02  0.9118800E+02  0.7818608E-02  0.1180000E+00
       11   -1    0    0    0    0  0.00000000000E+00  0.00000000000E+00  0.11999999989E+02  0.12000000000E+02  0.51109989000E-03 0. -1.
     -623   -1    0    0    0    0  0.00000000000E+00  0.00000000000E+00  0.42561509872E-11  0.25126700000E+02  0.25126700000E+02 0. -1.
      622    2    1    2    0    0 -0.69468235032E-03  0.19363057544E-02  0.11997079840E+02  0.11997535901E+02  0.10458850545E+00 0.  0.
       11    1    1    2    0    0 -0.58033984808E-03  0.11282910847E-03  0.23367570409E-02  0.24639767356E-02  0.51109989000E-03 0. -1.
     -623    1    1    2    0    0  0.12750221984E-02 -0.20491348628E-02  0.58339161266E-03  0.25126700123E+02  0.25126700000E+02 0. -1.
     -611    1    3    3    0    0 -0.13776905956E-01  0.24118959974E-01  0.11081585031E+02  0.11081624354E+02  0.10000000000E-01 0. -1.
      611    1    3    3    0    0  0.13082223606E-01 -0.22182654219E-01  0.91549480981E+00  0.91591154677E+00  0.10000000000E-01 0. -1.
</event>
<event>
 7   0  0.6206631E-02  0.9118800E+02  0.7818608E-02  0.1180000E+00
       11   -1    0    0    0    0  0.00000000000E+00  0.00000000000E+00  0.11999999989E+02  0.12000000000E+02  0.51109989000E-03 0.  1.
     -623   -1    0    0    0    0  0.00000000000E+00  0.00000000000E+00  0.42561509872E-11  0.25126700000E+02  0.25126700000E+02 0. -1.
      622    2    1    2    0    0  0.12397549686E-01 -0.36897564021E-02  0.11926323988E+02  0.11926856013E+02  0.11190699907E+00 0.  0.
       11    1    1    2    0    0 -0.27633090712E-03  0.12662119211E-01  0.72032674140E-01  0.73139407905E-01  0.51109989000E-03 0.  1.
     -623    1    1    2    0    0 -0.12121218779E-01 -0.89723628094E-02  0.16433273105E-02  0.25126704579E+02  0.25126700000E+02 0. -1.
     -611    1    3    3    0    0 -0.34135711382E-02 -0.28423944084E-02  0.11593758397E+02  0.11593763561E+02  0.10000000000E-01 0.  1.
      611    1    3    3    0    0  0.15811120824E-01 -0.84736199374E-03  0.33256559039E+00  0.33309245185E+00  0.10000000000E-01 0. -1.
</event>
<event>
 7   0  0.6206631E-02  0.9118800E+02  0.7818608E-02  0.1180000E+00
       11   -1    0    0    0    0  0.00000000000E+00  0.00000000000E+00  0.11999999989E+02  0.12000000000E+02  0.51109989000E-03 0.  1.
     -623   -1    0    0    0    0  0.00000000000E+00  0.00000000000E+00  0.42561509872E-11  0.25126700000E+02  0.25126700000E+02 0.  1.
      622    2    1    2    0    0  0.14010174254E-02 -0.26371312596E-02  0.11986500129E+02  0.11987280089E+02  0.13671023125E+00 0.  0.
       11    1    1    2    0    0  0.20902431431E-02  0.13541107095E-02  0.12462930071E-01  0.12719614038E-01  0.51109989000E-03 0.  1.
     -623    1    1    2    0    0 -0.34912605685E-02  0.12830205501E-02  0.10369304145E-02  0.25126700297E+02  0.25126700000E+02 0.  1.
     -611    1    3    3    0    0 -0.20168403572E-01 -0.49715359461E-01  0.97705614745E+01  0.97707138894E+01  0.10000000000E-01 0.  1.
      611    1    3    3    0    0  0.21569420998E-01  0.47078228202E-01  0.22159386541E+01  0.22165661998E+01  0.10000000000E-01 0. -1.
</event>
<event>
 7   0  0.6206631E-02  0.9118800E+02  0.7818608E-02  0.1180000E+00
       11   -1    0    0    0    0  0.00000000000E+00  0.00000000000E+00  0.11999999989E+02  0.12000000000E+02  0.51109989000E-03 0.  1.
     -623   -1    0    0    0    0  0.00000000000E+00  0.00000000000E+00  0.42561509872E-11  0.25126700000E+02  0.25126700000E+02 0.  1.
      622    2    1    2    0    0  0.68039809601E-02  0.93183857618E-02  0.11179995782E+02  0.11180312054E+02  0.83299426096E-01 0.  0.
       11    1    1    2    0    0 -0.56541329832E-02 -0.99126194023E-02  0.81960830836E+00  0.81968790988E+00  0.51109989000E-03 0.  1.
     -623    1    1    2    0    0 -0.11498479769E-02  0.59423364047E-03  0.39589826867E-03  0.25126700036E+02  0.25126700000E+02 0.  1.
     -611    1    3    3    0    0 -0.33682652818E-01 -0.30925697108E-02  0.70228418037E+01  0.70229303773E+01  0.10000000000E-01 0.  1.
      611    1    3    3    0    0  0.40486633778E-01  0.12410955473E-01  0.41571539788E+01  0.41573816763E+01  0.10000000000E-01 0. -1.
</event>
<event>
 7   0  0.6206631E-02  0.9118800E+02  0.7818608E-02  0.1180000E+00
       11   -1    0    0    0    0  0.00000000000E+00  0.00000000000E+00  0.11999999989E+02  0.12000000000E+02  0.51109989000E-03 0.  1.
     -623   -1    0    0    0    0  0.00000000000E+00  0.00000000000E+00  0.42561509872E-11  0.25126700000E+02  0.25126700000E+02 0. -1.
      622    2    1    2    0    0  0.11892869071E-02 -0.27507545415E-02  0.11926479691E+02  0.11927169681E+02  0.12825675345E+00 0.  0.
       11    1    1    2    0    0  0.20045362158E-02  0.34716164730E-02  0.72717886086E-01  0.72830093137E-01  0.51109989000E-03 0.  1.
     -623    1    1    2    0    0 -0.31938231229E-02 -0.72086193148E-03  0.80241215137E-03  0.25126700226E+02  0.25126700000E+02 0. -1.
     -611    1    3    3    0    0 -0.53384598504E-01 -0.31649948085E-01  0.47222845765E+01  0.47227029608E+01  0.10000000000E-01 0. -1.
      611    1    3    3    0    0  0.54573885411E-01  0.28899193544E-01  0.72041951144E+01  0.72044667200E+01  0.10000000000E-01 0.  1.
</event>
<event>
 7   0  0.6206631E-02  0.9118800E+02  0.7818608E-02  0.1180000E+00
       11   -1    0    0    0    0  0.00000000000E+00  0.00000000000E+00  0.11999999989E+02  0.12000000000E+02  0.51109989000E-03 0. -1.
     -623   -1    0    0    0    0  0.00000000000E+00  0.00000000000E+00  0.42561509872E-11  0.25126700000E+02  0.25126700000E+02 0.  1.
      622    2    1    2    0    0  0.18252932068E-02  0.18447168588E-02  0.11977462331E+02  0.11977863740E+02  0.98026335122E-01 0.  0.
       11    1    1    2    0    0 -0.20389667839E-02 -0.13223880919E-02  0.21996502995E-01  0.22136247716E-01  0.51109989000E-03 0. -1.
     -623    1    1    2    0    0  0.21367357712E-03 -0.52232876686E-03  0.54115557256E-03  0.25126700012E+02  0.25126700000E+02 0.  1.
     -611    1    3    3    0    0 -0.40530782915E-01  0.34578197296E-02  0.88390594804E+01  0.88391587382E+01  0.10000000000E-01 0. -1.
      611    1    3    3    0    0  0.42356076122E-01 -0.16131028708E-02  0.31384028502E+01  0.31387050020E+01  0.10000000000E-01 0.  1.
</event>
<event>
 7   0  0.6206631E-02  0.9118800E+02  0.7818608E-02  0.1180000E+00
       11   -1    0    0    0    0  0.00000000000E+00  0.00000000000E+00  0.11999999989E+02  0.12000000000E+02  0.51109989000E-03 0.  1.
     -623   -1    0    0    0    0  0.00000000000E+00  0.00000000000E+00  0.42561509872E-11  0.25126700000E+02  0.25126700000E+02 0.  1.
      622    2    1    2    0    0 -0.12524305008E-02  0.70888490880E-02  0.11993882255E+02  0.11994390929E+02  0.11022890701E+00 0.  0.
       11    1    1    2    0    0 -0.29987978523E-02  0.14245459799E-02  0.44897135489E-02  0.56072159484E-02  0.51109989000E-03 0.  1.
     -623    1    1    2    0    0  0.42512283531E-02 -0.85133950679E-02  0.16280210394E-02  0.25126701855E+02  0.25126700000E+02 0.  1.
     -611    1    3    3    0    0 -0.10674272762E-01  0.22546112984E-01  0.11546173449E+02  0.11546204726E+02  0.10000000000E-01 0.  1.
      611    1    3    3    0    0  0.94218422608E-02 -0.15457263896E-01  0.44770880591E+00  0.44818620350E+00  0.10000000000E-01 0. -1.
</event>
<event>
 7   0  0.6206631E-02  0.9118800E+02  0.7818608E-02  0.1180000E+00
       11   -1    0    0    0    0  0.00000000000E+00  0.00000000000E+00  0.11999999989E+02  0.12000000000E+02  0.51109989000E-03 0.  1.
     -623   -1    0    0    0    0  0.00000000000E+00  0.00000000000E+00  0.42561509872E-11  0.25126700000E+02  0.25126700000E+02 0. -1.
      622    2    1    2    0    0  0.28054980240E-01  0.60488564287E-02  0.20226247304E+01  0.20253489872E+01  0.10101509573E+00 0.  0.
       11    1    1    2    0    0 -0.55578267672E-01 -0.21739277789E-01  0.99744523250E+01  0.99746308696E+01  0.51109989000E-03 0.  1.
     -623    1    1    2    0    0  0.27523287432E-01  0.15690421360E-01  0.29229337737E-02  0.25126720143E+02  0.25126700000E+02 0. -1.
     -611    1    3    3    0    0  0.50607974448E-01 -0.26886521023E-01  0.84189731616E+00  0.84390470021E+00  0.10000000000E-01 0.  1.
      611    1    3    3    0    0 -0.22552994207E-01  0.32935377452E-01  0.11807274142E+01  0.11814442870E+01  0.10000000000E-01 0. -1.
</event>
<event>
 7   0  0.6206631E-02  0.9118800E+02  0.7818608E-02  0.1180000E+00
       11   -1    0    0    0    0  0.00000000000E+00  0.00000000000E+00  0.11999999989E+02  0.12000000000E+02  0.51109989000E-03 0.  1.
     -623   -1    0    0    0    0  0.00000000000E+00  0.00000000000E+00  0.42561509872E-11  0.25126700000E+02  0.25126700000E+02 0. -1.
      622    2    1    2    0    0  0.92768145524E-01 -0.30906220428E-01  0.10602986312E+02  0.10603584006E+02  0.55802466291E-01 0.  0.
       11    1    1    2    0    0 -0.88922100201E-01  0.23512358830E-01  0.13933817860E+01  0.13964143489E+01  0.51109989000E-03 0.  1.
     -623    1    1    2    0    0 -0.38460453234E-02  0.73938615977E-02  0.36318906202E-02  0.25126701645E+02  0.25126700000E+02 0. -1.
     -611    1    3    3    0    0  0.48190871628E-01 -0.34008666794E-01  0.77434498839E+01  0.77436809757E+01  0.10000000000E-01 0.  1.
      611    1    3    3    0    0  0.44577273896E-01  0.31024463664E-02  0.28595364286E+01  0.28599030307E+01  0.10000000000E-01 0. -1.
</event>
<event>
 7   0  0.6206631E-02  0.9118800E+02  0.7818608E-02  0.1180000E+00
       11   -1    0    0    0    0  0.00000000000E+00  0.00000000000E+00  0.11999999989E+02  0.12000000000E+02  0.51109989000E-03 0.  1.
     -623   -1    0    0    0    0  0.00000000000E+00  0.00000000000E+00  0.42561509872E-11  0.25126700000E+02  0.25126700000E+02 0. -1.
      622    2    1    2    0    0 -0.21799284097E-01  0.71680191234E-02  0.88664828616E+01  0.88672426593E+01  0.11378688391E+00 0.  0.
       11    1    1    2    0    0 -0.29963297737E-01 -0.93612141762E-02  0.31325465823E+01  0.31327039092E+01  0.51109989000E-03 0.  1.
     -623    1    1    2    0    0  0.51762581834E-01  0.21931950527E-02  0.97054528413E-03  0.25126753431E+02  0.25126700000E+02 0. -1.
     -611    1    3    3    0    0 -0.37439830227E-01 -0.43930952526E-02  0.85101179776E+01  0.85102073437E+01  0.10000000000E-01 0.  1.
      611    1    3    3    0    0  0.15640546130E-01  0.11561114376E-01  0.35636488397E+00  0.35703531559E+00  0.10000000000E-01 0.  1.
</event>
<event>
 7   0  0.6206631E-02  0.9118800E+02  0.7818608E-02  0.1180000E+00
       11   -1    0    0    0    0  0.00000000000E+00  0.00000000000E+00  0.11999999989E+02  0.12000000000E+02  0.51109989000E-03 0.  1.
     -623   -1    0    0    0    0  0.00000000000E+00  0.00000000000E+00  0.42561509872E-11  0.25126700000E+02  0.25126700000E+02 0. -1.
      622    2    1    2    0    0 -0.18480746554E-01 -0.26162746668E-01  0.65257054155E+01  0.65263270856E+01  0.84190440854E-01 0.  0.
       11    1    1    2    0    0  0.30438721545E-01  0.13368729305E-01  0.54735658168E+01  0.54736668012E+01  0.51109989000E-03 0.  1.
     -623    1    1    2    0    0 -0.11957974991E-01  0.12794017364E-01  0.72875682347E-03  0.25126706113E+02  0.25126700000E+02 0. -1.
     -611    1    3    3    0    0  0.11707431325E-01  0.16423380830E-01  0.39958696807E+01  0.39959330946E+01  0.10000000000E-01 0. -1.
      611    1    3    3    0    0 -0.30188177879E-01 -0.42586127499E-01  0.25298357348E+01  0.25303939910E+01  0.10000000000E-01 0.  1.
</event>
<event>
 7   0  0.6206631E-02  0.9118800E+02  0.7818608E-02  0.1180000E+00
       11   -1    0    0    0    0  0.00000000000E+00  0.00000000000E+00  0.11999999989E+02  0.12000000000E+02  0.51109989000E-03 0.  1.
     -623   -1    0    0    0    0  0.00000000000E+00  0.00000000000E+00  0.42561509872E-11  0.25126700000E+02  0.25126700000E+02 0.  1.
      622    2    1    2    0    0 -0.26903790723E-01 -0.19666156012E-01  0.42909096464E+01  0.42921298066E+01  0.96758005926E-01 0.  0.
       11    1    1    2    0    0  0.34916806870E-01  0.20532109006E-01  0.77077624145E+01  0.77078688656E+01  0.51109989000E-03 0.  1.
     -623    1    1    2    0    0 -0.80130161465E-02 -0.86595299462E-03  0.13279282300E-02  0.25126701328E+02  0.25126700000E+02 0.  1.
     -611    1    3    3    0    0  0.17483842187E-01 -0.40406403987E-01  0.12618101862E+01  0.12626176413E+01  0.10000000000E-01 0. -1.
      611    1    3    3    0    0 -0.44387632910E-01  0.20740247976E-01  0.30290994602E+01  0.30295121653E+01  0.10000000000E-01 0.  1.
</event>
<event>
 7   0  0.6206631E-02  0.9118800E+02  0.7818608E-02  0.1180000E+00
       11   -1    0    0    0    0  0.00000000000E+00  0.00000000000E+00  0.11999999989E+02  0.12000000000E+02  0.51109989000E-03 0. -1.
     -623   -1    0    0    0    0  0.00000000000E+00  0.00000000000E+00  0.42561509872E-11  0.25126700000E+02  0.25126700000E+02 0. -1.
      622    2    1    2    0    0  0.21629117231E-02  0.22778402485E-04  0.11996885224E+02  0.11997292459E+02  0.98826095225E-01 0.  0.
       11    1    1    2    0    0  0.17499653966E-02  0.39671148408E-03  0.19616278307E-02  0.27072062626E-02  0.51109989000E-03 0. -1.
     -623    1    1    2    0    0 -0.39128771196E-02 -0.41948988657E-03  0.11531374678E-02  0.25126700335E+02  0.25126700000E+02 0. -1.
     -611    1    3    3    0    0 -0.13155092310E-01 -0.38804289696E-01  0.90117226336E+01  0.90118213283E+01  0.10000000000E-01 0. -1.
      611    1    3    3    0    0  0.15318004033E-01  0.38827068098E-01  0.29851625903E+01  0.29854711308E+01  0.10000000000E-01 0.  1.
</event>
<event>
 7   0  0.6206631E-02  0.9118800E+02  0.7818608E-02  0.1180000E+00
       11   -1    0    0    0    0  0.00000000000E+00  0.00000000000E+00  0.11999999989E+02  0.12000000000E+02  0.51109989000E-03 0.  1.
     -623   -1    0    0    0    0  0.00000000000E+00  0.00000000000E+00  0.42561509872E-11  0.25126700000E+02  0.25126700000E+02 0.  1.
      622    2    1    2    0    0  0.83905771915E-02 -0.10403982052E-01  0.11532179366E+02  0.11532696883E+02  0.10843344159E+00 0.  0.
       11    1    1    2    0    0 -0.26142924425E-01  0.38626343566E-02  0.46654783536E+00  0.46729596226E+00  0.51109989000E-03 0.  1.
     -623    1    1    2    0    0  0.17752347234E-01  0.65413476950E-02  0.12727874389E-02  0.25126707155E+02  0.25126700000E+02 0.  1.
     -611    1    3    3    0    0  0.46714622529E-01  0.15884110413E-02  0.27173247577E+01  0.27177451348E+01  0.10000000000E-01 0. -1.
      611    1    3    3    0    0 -0.38324045338E-01 -0.11992393093E-01  0.88148546086E+01  0.88149517481E+01  0.10000000000E-01 0.  1.
</event>
<event>
 7   0  0.6206631E-02  0.9118800E+02  0.7818608E-02  0.1180000E+00
       11   -1    0    0    0    0  0.00000000000E+00  0.00000000000E+00  0.11999999989E+02  0.12000000000E+02  0.51109989000E-03 0. -1.
     -623   -1    0    0    0    0  0.00000000000E+00  0.00000000000E+00  0.42561509872E-11  0.25126700000E+02  0.25126700000E+02 0. -1.
      622    2    1    2    0    0 -0.23079511681E-02 -0.38292365746E-02  0.11330507537E+02  0.11331877137E+02  0.17612043397E+00 0.  0.
       11    1    1    2    0    0  0.10422197129E-01  0.51494978142E-02  0.66802013765E+00  0.66812147477E+00  0.51109989000E-03 0. -1.
     -623    1    1    2    0    0 -0.81142459613E-02 -0.13202612396E-02  0.14723140170E-02  0.25126701388E+02  0.25126700000E+02 0. -1.
     -611    1    3    3    0    0 -0.80395822277E-01  0.43831391872E-02  0.80746519780E+01  0.80750595828E+01  0.10000000000E-01 0.  1.
      611    1    3    3    0    0  0.78087871108E-01 -0.82123757619E-02  0.32558555595E+01  0.32568175544E+01  0.10000000000E-01 0. -1.
</event>
<event>
 7   0  0.6206631E-02  0.9118800E+02  0.7818608E-02  0.1180000E+00
       11   -1    0    0    0    0  0.00000000000E+00  0.00000000000E+00  0.11999999989E+02  0.12000000000E+02  0.51109989000E-03 0.  1.
     -623   -1    0    0    0    0  0.00000000000E+00  0.00000000000E+00  0.42561509872E-11  0.25126700000E+02  0.25126700000E+02 0.  1.
      622    2    1    2    0    0 -0.29649149206E-02  0.20252336125E-02  0.90468444128E+01  0.90473893899E+01  0.99237339116E-01 0.  0.
       11    1    1    2    0    0  0.11304802530E-02 -0.72956705551E-02  0.29526007101E+01  0.29526099843E+01  0.51109989000E-03 0.  1.
     -623    1    1    2    0    0  0.18344346675E-02  0.52704369425E-02  0.55486617230E-03  0.25126700626E+02  0.25126700000E+02 0.  1.
     -611    1    3    3    0    0 -0.48373816876E-01  0.13865363838E-01  0.47554503417E+01  0.47557270976E+01  0.10000000000E-01 0. -1.
      611    1    3    3    0    0  0.45408901956E-01 -0.11840130225E-01  0.42913940711E+01  0.42916622922E+01  0.10000000000E-01 0.  1.
</event>
<event>
 7   0  0.6206631E-02  0.9118800E+02  0.7818608E-02  0.1180000E+00
       11   -1    0    0    0    0  0.00000000000E+00  0.00000000000E+00  0.11999999989E+02  0.12000000000E+02  0.51109989000E-03 0.  1.
     -623   -1    0    0    0    0  0.00000000000E+00  0.00000000000E+00  0.42561509872E-11  0.25126700000E+02  0.25126700000E+02 0.  1.
      622    2    1    2    0    0 -0.13079013491E-02  0.21095246027E-03  0.11996673193E+02  0.11997096049E+02  0.10071822957E+00 0.  0.
       11    1    1    2    0    0  0.31728487565E-03 -0.38091317029E-03  0.28152791182E-02  0.29039256523E-02  0.51109989000E-03 0.  1.
     -623    1    1    2    0    0  0.99061647341E-03  0.16996071002E-03  0.51151727916E-03  0.25126700025E+02  0.25126700000E+02 0.  1.
     -611    1    3    3    0    0  0.29362381631E-01  0.11036505727E-01  0.14732070560E+01  0.14735748993E+01  0.10000000000E-01 0. -1.
      611    1    3    3    0    0 -0.30670282980E-01 -0.10825553267E-01  0.10523466137E+02  0.10523521150E+02  0.10000000000E-01 0.  1.
</event>
<event>
 7   0  0.6206631E-02  0.9118800E+02  0.7818608E-02  0.1180000E+00
       11   -1    0    0    0    0  0.00000000000E+00  0.00000000000E+00  0.11999999989E+02  0.12000000000E+02  0.51109989000E-03 0. -1.
     -623   -1    0    0    0    0  0.00000000000E+00  0.00000000000E+00  0.42561509872E-11  0.25126700000E+02  0.25126700000E+02 0.  1.
      622    2    1    2    0    0  0.24597911405E-02  0.62992259716E-02  0.96079439285E+01  0.96084063440E+01  0.94022373005E-01 0.  0.
       11    1    1    2    0    0  0.65704181282E-02 -0.56667435660E-02  0.23915762272E+01  0.23915920208E+01  0.51109989000E-03 0. -1.
     -623    1    1    2    0    0 -0.90302092687E-02 -0.63248240565E-03  0.47983342369E-03  0.25126701635E+02  0.25126700000E+02 0.  1.
     -611    1    3    3    0    0  0.10778778765E-01  0.13149322704E-02  0.93929497718E+01  0.93929613715E+01  0.10000000000E-01 0. -1.
      611    1    3    3    0    0 -0.83189876242E-02  0.49842937013E-02  0.21499415670E+00  0.21544497245E+00  0.10000000000E-01 0.  1.
</event>
<event>
 7   0  0.6206631E-02  0.9118800E+02  0.7818608E-02  0.1180000E+00
       11   -1    0    0    0    0  0.00000000000E+00  0.00000000000E+00  0.11999999989E+02  0.12000000000E+02  0.51109989000E-03 0. -1.
     -623   -1    0    0    0    0  0.00000000000E+00  0.00000000000E+00  0.42561509872E-11  0.25126700000E+02  0.25126700000E+02 0.  1.
      622    2    1    2    0    0 -0.56438823193E-02 -0.10821580574E-01  0.83315974447E+01  0.83327648858E+01  0.13894495533E+00 0.  0.
       11    1    1    2    0    0  0.13189783410E-02  0.11092672928E-01  0.36672176632E+01  0.36672347126E+01  0.51109989000E-03 0. -1.
     -623    1    1    2    0    0  0.43249039783E-02 -0.27109235403E-03  0.11848812192E-02  0.25126700402E+02  0.25126700000E+02 0.  1.
     -611    1    3    3    0    0  0.90158560257E-03 -0.40580892118E-01  0.79439057083E+00  0.79548978666E+00  0.10000000000E-01 0.  1.
      611    1    3    3    0    0 -0.65454679219E-02  0.29759311543E-01  0.75372068739E+01  0.75372750991E+01  0.10000000000E-01 0. -1.
</event>
<event>
 7   0  0.6206631E-02  0.9118800E+02  0.7818608E-02  0.1180000E+00
       11   -1    0    0    0    0  0.00000000000E+00  0.00000000000E+00  0.11999999989E+02  0.12000000000E+02  0.51109989000E-03 0. -1.
     -623   -1    0    0    0    0  0.00000000000E+00  0.00000000000E+00  0.42561509872E-11  0.25126700000E+02  0.25126700000E+02 0. -1.
      622    2    1    2    0    0  0.20437378988E-02  0.52269493711E-02  0.11980885524E+02  0.11981110399E+02  0.73191253753E-01 0.  0.
       11    1    1    2    0    0 -0.23457613778E-02 -0.28455346463E-02  0.18518950614E-01  0.18889479051E-01  0.51109989000E-03 0. -1.
     -623    1    1    2    0    0  0.30202347901E-03 -0.23814147249E-02  0.59551443261E-03  0.25126700122E+02  0.25126700000E+02 0. -1.
     -611    1    3    3    0    0 -0.33861160581E-01  0.22183313138E-02  0.66144538892E+01  0.66145484919E+01  0.10000000000E-01 0. -1.
      611    1    3    3    0    0  0.35904898480E-01  0.30086180573E-02  0.53664316349E+01  0.53665619074E+01  0.10000000000E-01 0. -1.
</event>
<event>
 7   0  0.6206631E-02  0.9118800E+02  0.7818608E-02  0.1180000E+00
       11   -1    0    0    0    0  0.00000000000E+00  0.00000000000E+00  0.11999999989E+02  0.12000000000E+02  0.51109989000E-03 0.  1.
     -623   -1    0    0    0    0  0.00000000000E+00  0.00000000000E+00  0.42561509872E-11  0.25126700000E+02  0.25126700000E+02 0. -1.
      622    2    1    2    0    0  0.60660810294E-01 -0.85855301353E-01  0.10287467910E+02  0.10288461422E+02  0.96910092683E-01 0.  0.
       11    1    1    2    0    0 -0.10008290396E+00  0.15666306060E+00  0.17012783881E+01  0.17114053633E+01  0.51109989000E-03 0.  1.
     -623    1    1    2    0    0  0.39422093664E-01 -0.70807759243E-01  0.11253690473E-01  0.25126833214E+02  0.25126700000E+02 0. -1.
     -611    1    3    3    0    0  0.17495730986E-01 -0.95275869874E-01  0.73210691679E+01  0.73217168310E+01  0.10000000000E-01 0.  1.
      611    1    3    3    0    0  0.43165079308E-01  0.94205685213E-02  0.29663987426E+01  0.29667445915E+01  0.10000000000E-01 0. -1.
</event>
<event>
 7   0  0.6206631E-02  0.9118800E+02  0.7818608E-02  0.1180000E+00
       11   -1    0    0    0    0  0.00000000000E+00  0.00000000000E+00  0.11999999989E+02  0.12000000000E+02  0.51109989000E-03 0. -1.
     -623   -1    0    0    0    0  0.00000000000E+00  0.00000000000E+00  0.42561509872E-11  0.25126700000E+02  0.25126700000E+02 0. -1.
      622    2    1    2    0    0  0.65545317518E-01 -0.60786085228E-01  0.78578010127E+01  0.78591406069E+01  0.11429429825E+00 0.  0.
       11    1    1    2    0    0 -0.62637380351E-01  0.56465149529E-01  0.41399999070E+01  0.41408587571E+01  0.51109989000E-03 0. -1.
     -623    1    1    2    0    0 -0.29079371667E-02  0.43209356991E-02  0.21990693547E-02  0.25126700636E+02  0.25126700000E+02 0. -1.
     -611    1    3    3    0    0  0.55290115296E-01 -0.19805745246E-01  0.14886239293E+01  0.14898155816E+01  0.10000000000E-01 0. -1.
      611    1    3    3    0    0  0.10255202222E-01 -0.40980339982E-01  0.63691770834E+01  0.63693250253E+01  0.10000000000E-01 0.  1.
</event>
<event>
 7   0  0.6206631E-02  0.9118800E+02  0.7818608E-02  0.1180000E+00
       11   -1    0    0    0    0  0.00000000000E+00  0.00000000000E+00  0.11999999989E+02  0.12000000000E+02  0.51109989000E-03 0.  1.
     -623   -1    0    0    0    0  0.00000000000E+00  0.00000000000E+00  0.42561509872E-11  0.25126700000E+02  0.25126700000E+02 0.  1.
      622    2    1    2    0    0  0.60144997944E-01  0.61409297136E-01  0.10373439143E+02  0.10374289329E+02  0.10124678389E+00 0.  0.
       11    1    1    2    0    0  0.87245410599E-03  0.99284785047E-02  0.16255046582E+01  0.16255352937E+01  0.51109989000E-03 0.  1.
     -623    1    1    2    0    0 -0.61017452050E-01 -0.71337775641E-01  0.10561878785E-02  0.25126875377E+02  0.25126700000E+02 0.  1.
     -611    1    3    3    0    0 -0.98229997723E-02  0.19434530787E-01  0.61696617536E+01  0.61697082870E+01  0.10000000000E-01 0.  1.
      611    1    3    3    0    0  0.69967997716E-01  0.41974766349E-01  0.42037773894E+01  0.42045810423E+01  0.10000000000E-01 0. -1.
</event>
<event>
 7   0  0.6206631E-02  0.9118800E+02  0.7818608E-02  0.1180000E+00
       11   -1    0    0    0    0  0.00000000000E+00  0.00000000000E+00  0.11999999989E+02  0.12000000000E+02  0.51109989000E-03 0. -1.
     -623   -1    0    0    0    0  0.00000000000E+00  0.00000000000E+00  0.42561509872E-11  0.25126700000E+02  0.25126700000E+02 0.  1.
      622    2    1    2    0    0 -0.13156008991E-01 -0.37444520762E-02  0.99305663502E+01  0.99310371066E+01  0.95722913436E-01 0.  0.
       11    1    1    2    0    0  0.24044881992E-01  0.67697813901E-02  0.20688094785E+01  0.20689603442E+01  0.51109989000E-03 0. -1.
     -623    1    1    2    0    0 -0.10888873001E-01 -0.30253293139E-02  0.62416052413E-03  0.25126702549E+02  0.25126700000E+02 0.  1.
     -611    1    3    3    0    0 -0.39987183841E-01  0.16443872229E-01  0.25395024241E+01  0.25398901429E+01  0.10000000000E-01 0.  1.
      611    1    3    3    0    0  0.26831174850E-01 -0.20188324306E-01  0.73910639260E+01  0.73911469637E+01  0.10000000000E-01 0. -1.
</event>
<event>
 7   0  0.6206631E-02  0.9118800E+02  0.7818608E-02  0.1180000E+00
       11   -1    0    0    0    0  0.00000000000E+00  0.00000000000E+00  0.11999999989E+02  0.12000000000E+02  0.51109989000E-03 0. -1.
     -623   -1    0    0    0    0  0.00000000000E+00  0.00000000000E+00  0.42561509872E-11  0.25126700000E+02  0.25126700000E+02 0.  1.
      622    2    1    2    0    0  0.12803788192E+00 -0.21006745547E-01  0.70278957612E+01  0.70299238456E+01  0.10805305763E+00 0.  0.
       11    1    1    2    0    0 -0.12259456661E+00  0.20988182873E-01  0.49685187313E+01  0.49700753089E+01  0.51109989000E-03 0. -1.
     -623    1    1    2    0    0 -0.54433153111E-02  0.18562673233E-04  0.35854966308E-02  0.25126700845E+02  0.25126700000E+02 0.  1.
     -611    1    3    3    0    0  0.79889537580E-01 -0.52881285844E-01  0.55965768307E+01  0.55974057375E+01  0.10000000000E-01 0. -1.
      611    1    3    3    0    0  0.48148344345E-01  0.31874540297E-01  0.14313189305E+01  0.14325181081E+01  0.10000000000E-01 0. -1.
</event>
<event>
 7   0  0.6206631E-02  0.9118800E+02  0.7818608E-02  0.1180000E+00
       11   -1    0    0    0    0  0.00000000000E+00  0.00000000000E+00  0.11999999989E+02  0.12000000000E+02  0.51109989000E-03 0.  1.
     -623   -1    0    0    0    0  0.00000000000E+00  0.00000000000E+00  0.42561509872E-11  0.25126700000E+02  0.25126700000E+02 0.  1.
      622    2    1    2    0    0 -0.62975762963E-03  0.95922239828E-03  0.11989359398E+02  0.11990021667E+02  0.12601382602E+00 0.  0.
       11    1    1    2    0    0  0.17034279840E-03 -0.38416692845E-03  0.99563502892E-02  0.99783132400E-02  0.51109989000E-03 0.  1.
     -623    1    1    2    0    0  0.45941483123E-03 -0.57505546983E-03  0.68424118151E-03  0.25126700020E+02  0.25126700000E+02 0.  1.
     -611    1    3    3    0    0 -0.48283399866E-01 -0.10240537425E-01  0.23817392378E+01  0.23822715949E+01  0.10000000000E-01 0.  1.
      611    1    3    3    0    0  0.47653642237E-01  0.11199759824E-01  0.96076201599E+01  0.96077500717E+01  0.10000000000E-01 0.  1.
</event>
<event>
 7   0  0.6206631E-02  0.9118800E+02  0.7818608E-02  0.1180000E+00
       11   -1    0    0    0    0  0.00000000000E+00  0.00000000000E+00  0.11999999989E+02  0.12000000000E+02  0.51109989000E-03 0. -1.
     -623   -1    0    0    0    0  0.00000000000E+00  0.00000000000E+00  0.42561509872E-11  0.25126700000E+02  0.25126700000E+02 0. -1.
      622    2    1    2    0    0  0.67654586366E-02 -0.20287419967E-01  0.96067663432E+01  0.96073267157E+01  0.10153668772E+00 0.  0.
       11    1    1    2    0    0 -0.10561032620E-01  0.32617473674E-01  0.23924242597E+01  0.23926699594E+01  0.51109989000E-03 0. -1.
     -623    1    1    2    0    0  0.37955739833E-02 -0.12330053707E-01  0.80938632699E-03  0.25126703325E+02  0.25126700000E+02 0. -1.
     -611    1    3    3    0    0  0.27136349907E-01 -0.17180913454E-01  0.90803528543E+01  0.90804151625E+01  0.10000000000E-01 0. -1.
      611    1    3    3    0    0 -0.20370891270E-01 -0.31065065129E-02  0.52641348888E+00  0.52691155317E+00  0.10000000000E-01 0.  1.
</event>
<event>
 7   0  0.6206631E-02  0.9118800E+02  0.7818608E-02  0.1180000E+00
       11   -1    0    0    0    0  0.00000000000E+00  0.00000000000E+00  0.11999999989E+02  0.12000000000E+02  0.51109989000E-03 0.  1.
     -623   -1    0    0    0    0  0.00000000000E+00  0.00000000000E+00  0.42561509872E-11  0.25126700000E+02  0.25126700000E+02 0.  1.
      622    2    1    2    0    0 -0.66656487674E-02 -0.63760757957E-02  0.11874781544E+02  0.11875265536E+02  0.10681645281E+00 0.  0.
       11    1    1    2    0    0 -0.28344646997E-01  0.35283352383E-01  0.11618715569E+00  0.12469182146E+00  0.51109989000E-03 0.  1.
     -623    1    1    2    0    0  0.35010295765E-01 -0.28907276587E-01  0.90312893524E-02  0.25126742642E+02  0.25126700000E+02 0.  1.
     -611    1    3    3    0    0 -0.53466953529E-02 -0.10800021619E-01  0.25586129821E+00  0.25634007010E+00  0.10000000000E-01 0.  1.
      611    1    3    3    0    0 -0.13189534145E-02  0.44239458236E-02  0.11618920246E+02  0.11618925466E+02  0.10000000000E-01 0.  1.
</event>
<event>
 7   0  0.6206631E-02  0.9118800E+02  0.7818608E-02  0.1180000E+00
       11   -1    0    0    0    0  0.00000000000E+00  0.00000000000E+00  0.11999999989E+02  0.12000000000E+02  0.51109989000E-03 0.  1.
     -623   -1    0    0    0    0  0.00000000000E+00  0.00000000000E+00  0.42561509872E-11  0.25126700000E+02  0.25126700000E+02 0. -1.
      622    2    1    2    0    0 -0.34854805272E-02 -0.66039633780E-02  0.11960534597E+02  0.11961011882E+02  0.10659098960E+00 0.  0.
       11    1    1    2    0    0  0.87042429116E-02  0.57862037351E-03  0.37994888410E-01  0.38986810778E-01  0.51109989000E-03 0.  1.
     -623    1    1    2    0    0 -0.52187623845E-02  0.60253430045E-02  0.14705041088E-02  0.25126701307E+02  0.25126700000E+02 0. -1.
     -611    1    3    3    0    0 -0.35382489430E-01 -0.26311778275E-01  0.25739143166E+01  0.25743113913E+01  0.10000000000E-01 0. -1.
      611    1    3    3    0    0  0.31897008903E-01  0.19707814897E-01  0.93866202800E+01  0.93867004904E+01  0.10000000000E-01 0.  1.
</event>
<event>
 7   0  0.6206631E-02  0.9118800E+02  0.7818608E-02  0.1180000E+00
       11   -1    0    0    0    0  0.00000000000E+00  0.00000000000E+00  0.11999999989E+02  0.12000000000E+02  0.51109989000E-03 0. -1.
     -623   -1    0    0    0    0  0.00000000000E+00  0.00000000000E+00  0.42561509872E-11  0.25126700000E+02  0.25126700000E+02 0.  1.
      622    2    1    2    0    0  0.21738983908E-02  0.19017486315E-01  0.79252917075E+01  0.79259146543E+01  0.97509320369E-01 0.  0.
       11    1    1    2    0    0 -0.35131147244E-02 -0.12775267814E-01  0.40740629496E+01  0.40740845263E+01  0.51109989000E-03 0. -1.
     -623    1    1    2    0    0  0.13392163336E-02 -0.62422185005E-02  0.64533203137E-03  0.25126700819E+02  0.25126700000E+02 0.  1.
     -611    1    3    3    0    0  0.29379505892E-01  0.45566439167E-01  0.33450400990E+01  0.33454943909E+01  0.10000000000E-01 0.  1.
      611    1    3    3    0    0 -0.27205607501E-01 -0.26548952852E-01  0.45802516084E+01  0.45804202633E+01  0.10000000000E-01 0. -1.
</event>
<event>
 7   0  0.6206631E-02  0.9118800E+02  0.7818608E-02  0.1180000E+00
       11   -1    0    0    0    0  0.00000000000E+00  0.00000000000E+00  0.11999999989E+02  0.12000000000E+02  0.51109989000E-03 0.  1.
     -623   -1    0    0    0    0  0.00000000000E+00  0.00000000000E+00  0.42561509872E-11  0.25126700000E+02  0.25126700000E+02 0.  1.
      622    2    1    2    0    0  0.65598945141E-01 -0.47480547316E-01  0.10049827215E+02  0.10051299521E+02  0.15178068621E+00 0.  0.
       11    1    1    2    0    0 -0.56077404148E-01  0.45204227703E-01  0.19473667235E+01  0.19486984154E+01  0.51109989000E-03 0.  1.
     -623    1    1    2    0    0 -0.95215409925E-02  0.22763196137E-02  0.28060505031E-02  0.25126702064E+02  0.25126700000E+02 0.  1.
     -611    1    3    3    0    0  0.57614941197E-01 -0.76729583647E-02  0.12662152258E+01  0.12675880064E+01  0.10000000000E-01 0. -1.
      611    1    3    3    0    0  0.79840039435E-02 -0.39807588952E-01  0.87836119893E+01  0.87837115143E+01  0.10000000000E-01 0.  1.
</event>
<event>
 7   0  0.6206631E-02  0.9118800E+02  0.7818608E-02  0.1180000E+00
       11   -1    0    0    0    0  0.00000000000E+00  0.00000000000E+00  0.11999999989E+02  0.12000000000E+02  0.51109989000E-03 0. -1.
     -623   -1    0    0    0    0  0.00000000000E+00  0.00000000000E+00  0.42561509872E-11  0.25126700000E+02  0.25126700000E+02 0. -1.
      622    2    1    2    0    0  0.44528720836E-03  0.12759537074E-02  0.11992780194E+02  0.11993130395E+02  0.91640884560E-01 0.  0.
       11    1    1    2    0    0 -0.10307505348E-02 -0.35209479389E-03  0.67633905009E-02  0.68695772502E-02  0.51109989000E-03 0. -1.
     -623    1    1    2    0    0  0.58546332640E-03 -0.92385891348E-03  0.45640432687E-03  0.25126700028E+02  0.25126700000E+02 0. -1.
     -611    1    3    3    0    0  0.98251540173E-02 -0.33336632629E-01  0.23492769399E+01  0.23495552782E+01  0.10000000000E-01 0.  1.
      611    1    3    3    0    0 -0.93798668089E-02  0.34612586336E-01  0.96435032544E+01  0.96435751166E+01  0.10000000000E-01 0. -1.
</event>
<event>
 7   0  0.6206631E-02  0.9118800E+02  0.7818608E-02  0.1180000E+00
       11   -1    0    0    0    0  0.00000000000E+00  0.00000000000E+00  0.11999999989E+02  0.12000000000E+02  0.51109989000E-03 0.  1.
     -623   -1    0    0    0    0  0.00000000000E+00  0.00000000000E+00  0.42561509872E-11  0.25126700000E+02  0.25126700000E+02 0.  1.
      622    2    1    2    0    0 -0.17486418221E+00 -0.84559944351E-01  0.65831998281E+01  0.65862336191E+01  0.47174600662E-01 0.  0.
       11    1    1    2    0    0  0.17195080690E+00  0.82742468992E-01  0.54104012241E+01  0.54137653314E+01  0.51109989000E-03 0.  1.
     -623    1    1    2    0    0  0.29133753113E-02  0.18174753592E-02  0.63989368704E-02  0.25126701049E+02  0.25126700000E+02 0.  1.
     -611    1    3    3    0    0 -0.32178545584E-01  0.49336278298E-04  0.11135400796E+01  0.11140498059E+01  0.10000000000E-01 0.  1.
      611    1    3    3    0    0 -0.14268563663E+00 -0.84609280629E-01  0.54696597485E+01  0.54721838132E+01  0.10000000000E-01 0.  1.
</event>
<event>
 7   0  0.6206631E-02  0.9118800E+02  0.7818608E-02  0.1180000E+00
       11   -1    0    0    0    0  0.00000000000E+00  0.00000000000E+00  0.11999999989E+02  0.12000000000E+02  0.51109989000E-03 0.  1.
     -623   -1    0    0    0    0  0.00000000000E+00  0.00000000000E+00  0.42561509872E-11  0.25126700000E+02  0.25126700000E+02 0. -1.
      622    2    1    2    0    0  0.41274077707E-02  0.89178440164E-03  0.11499725547E+02  0.11499768674E+02  0.31209808312E-01 0.  0.
       11    1    1    2    0    0 -0.40019404232E-02 -0.87087640444E-03  0.50021429803E+00  0.50023132562E+00  0.51109989000E-03 0.  1.
     -623    1    1    2    0    0 -0.12546734761E-03 -0.20907997223E-04  0.60143394242E-04  0.25126700000E+02  0.25126700000E+02 0. -1.
     -611    1    3    3    0    0 -0.77355852581E-02 -0.65319037079E-02  0.55726732100E+01  0.55726913794E+01  0.10000000000E-01 0.  1.
      611    1    3    3    0    0  0.11862993029E-01  0.74236881095E-02  0.59270523375E+01  0.59270772943E+01  0.10000000000E-01 0.  1.
</event>
<event>
 7   0  0.6206631E-02  0.9118800E+02  0.7818608E-02  0.1180000E+00
       11   -1    0    0    0    0  0.00000000000E+00  0.00000000000E+00  0.11999999989E+02  0.12000000000E+02  0.51109989000E-03 0. -1.
     -623   -1    0    0    0    0  0.00000000000E+00  0.00000000000E+00  0.42561509872E-11  0.25126700000E+02  0.25126700000E+02 0. -1.
      622    2    1    2    0    0 -0.78703700899E-04 -0.20300641926E-02  0.11958175052E+02  0.11958238914E+02  0.39028550703E-01 0.  0.
       11    1    1    2    0    0  0.32788783820E-02 -0.86035013304E-04  0.41628644790E-01  0.41760791846E-01  0.51109989000E-03 0. -1.
     -623    1    1    2    0    0 -0.32001746811E-02  0.21160992059E-02  0.19629205162E-03  0.25126700294E+02  0.25126700000E+02 0. -1.
     -611    1    3    3    0    0  0.13515740369E-01 -0.64199816898E-02  0.35349785431E+01  0.35350243551E+01  0.10000000000E-01 0.  1.
      611    1    3    3    0    0 -0.13594444070E-01  0.43899174971E-02  0.84231965091E+01  0.84232145593E+01  0.10000000000E-01 0. -1.
</event>
<event>
 6   0  0.6206631E-02  0.9118800E+02  0.7818608E-02  0.1180000E+00
       11   -1    0    0    0    0  0.00000000000E+00  0.00000000000E+00  0.11999999989E+02  0.12000000000E+02  0.51109989000E-03 0.  1.
     -623   -1    0    0    0    0  0.00000000000E+00  0.00000000000E+00  0.42561509872E-11  0.25126700000E+02  0.25126700000E+02 0. -1.
       11    1    1    2    0    0 -0.11034089717E-01  0.13713509558E-01  0.41769212620E+00  0.41806313518E+00  0.51109989000E-03 0.  1.
     -623    1    1    2    0    0 -0.12546645063E-02 -0.83455900833E-03  0.21556679326E-02  0.25126700138E+02  0.25126700000E+02 0. -1.
     -611    1    1    2    0    0  0.10343587939E+00 -0.29814633222E-01  0.54111988575E+01  0.54122787224E+01  0.10000000000E-01 0. -1.
      611    1    1    2    0    0 -0.91147125162E-01  0.16935682673E-01  0.61689533375E+01  0.61696580048E+01  0.10000000000E-01 0.  1.
</event>
<event>
 7   0  0.6206631E-02  0.9118800E+02  0.7818608E-02  0.1180000E+00
       11   -1    0    0    0    0  0.00000000000E+00  0.00000000000E+00  0.11999999989E+02  0.12000000000E+02  0.51109989000E-03 0.  1.
     -623   -1    0    0    0    0  0.00000000000E+00  0.00000000000E+00  0.42561509872E-11  0.25126700000E+02  0.25126700000E+02 0. -1.
      622    2    1    2    0    0  0.21418229879E-01  0.61850447540E-02  0.56624311546E+01  0.56653135517E+01  0.17931554060E+00 0.  0.
       11    1    1    2    0    0  0.75144478565E-01  0.31597197695E-01  0.63339476763E+01  0.63344722355E+01  0.51109989000E-03 0.  1.
     -623    1    1    2    0    0 -0.96562708444E-01 -0.37782242449E-01  0.36211582591E-02  0.25126914213E+02  0.25126700000E+02 0. -1.
     -611    1    3    3    0    0 -0.73749690796E-01  0.28689923685E-01  0.30239932540E+01  0.30250450127E+01  0.10000000000E-01 0.  1.
      611    1    3    3    0    0  0.95167920674E-01 -0.22504878930E-01  0.26384379006E+01  0.26402685390E+01  0.10000000000E-01 0. -1.
</event>
<event>
 7   0  0.6206631E-02  0.9118800E+02  0.7818608E-02  0.1180000E+00
       11   -1    0    0    0    0  0.00000000000E+00  0.00000000000E+00  0.11999999989E+02  0.12000000000E+02  0.51109989000E-03 0.  1.
     -623   -1    0    0    0    0  0.00000000000E+00  0.00000000000E+00  0.42561509872E-11  0.25126700000E+02  0.25126700000E+02 0.  1.
      622    2    1    2    0    0  0.16932660442E-01  0.27199541467E-01  0.39549878706E+01  0.39552999807E+01  0.37978289910E-01 0.  0.
       11    1    1    2    0    0 -0.14582451149E-01 -0.26360485889E-01  0.80446434713E+01  0.80446998928E+01  0.51109989000E-03 0.  1.
     -623    1    1    2    0    0 -0.23502092931E-02 -0.83905557724E-03  0.36864728801E-03  0.25126700127E+02  0.25126700000E+02 0.  1.
     -611    1    3    3    0    0  0.95962565986E-02  0.19970385030E-02  0.49478604561E+00  0.49498414846E+00  0.10000000000E-01 0.  1.
      611    1    3    3    0    0  0.73364038436E-02  0.25202502964E-01  0.34602018250E+01  0.34603158322E+01  0.10000000000E-01 0. -1.
</event>
<event>
 7   0  0.6206631E-02  0.9118800E+02  0.7818608E-02  0.1180000E+00
       11   -1    0    0    0    0  0.00000000000E+00  0.00000000000E+00  0.11999999989E+02  0.12000000000E+02  0.51109989000E-03 0. -1.
     -623   -1    0    0    0    0  0.00000000000E+00  0.00000000000E+00  0.42561509872E-11  0.25126700000E+02  0.25126700000E+02 0. -1.
      622    2    1    2    0    0  0.39626663043E-01  0.39849703611E-03  0.10747985288E+02  0.10748400602E+02  0.85774821613E-01 0.  0.
       11    1    1    2    0    0 -0.19655407980E+00  0.16768110870E-01  0.12354478382E+01  0.12510980370E+01  0.51109989000E-03 0. -1.
     -623    1    1    2    0    0  0.15692741676E+00 -0.17166607906E-01  0.16566863313E-01  0.25127201361E+02  0.25126700000E+02 0. -1.
     -611    1    3    3    0    0  0.36397346490E-01  0.37461521263E-01  0.74619955944E+01  0.74621850944E+01  0.10000000000E-01 0. -1.
      611    1    3    3    0    0  0.32293165534E-02 -0.37063024226E-01  0.32859896931E+01  0.32862155072E+01  0.10000000000E-01 0.  1.
</event>
<event>
 7   0  0.6206631E-02  0.9118800E+02  0.7818608E-02  0.1180000E+00
       11   -1    0    0    0    0  0.00000000000E+00  0.00000000000E+00  0.11999999989E+02  0.12000000000E+02  0.51109989000E-03 0.  1.
     -623   -1    0    0    0    0  0.00000000000E+00  0.00000000000E+00  0.42561509872E-11  0.25126700000E+02  0.25126700000E+02 0.  1.
      622    2    1    2    0    0 -0.39849225344E-01  0.20264178105E-01  0.10655485875E+02  0.10656091007E+02  0.10439209398E+00 0.  0.
       11    1    1    2    0    0  0.73218414504E-01  0.48281003797E-01  0.13409278883E+01  0.13437930847E+01  0.51109989000E-03 0.  1.
     -623    1    1    2    0    0 -0.33369189160E-01 -0.68545181902E-01  0.35862254299E-02  0.25126815908E+02  0.25126700000E+02 0.  1.
     -611    1    3    3    0    0  0.20203186229E-01  0.19288191321E-01  0.72511011730E+01  0.72511618672E+01  0.10000000000E-01 0.  1.
      611    1    3    3    0    0 -0.60052411573E-01  0.97598678361E-03  0.34043847024E+01  0.34049291397E+01  0.10000000000E-01 0. -1.
</event>
<event>
 7   0  0.6206631E-02  0.9118800E+02  0.7818608E-02  0.1180000E+00
       11   -1    0    0    0    0  0.00000000000E+00  0.00000000000E+00  0.11999999989E+02  0.12000000000E+02  0.51109989000E-03 0. -1.
     -623   -1    0    0    0    0  0.00000000000E+00  0.00000000000E+00  0.42561509872E-11  0.25126700000E+02  0.25126700000E+02 0.  1.
      622    2    1    2    0    0  0.25366311586E-01  0.10333418801E-01  0.11038485751E+02  0.11039103489E+02  0.11352503823E+00 0.  0.
       11    1    1    2    0    0 -0.52490189028E-01  0.11406194698E-02  0.95944358301E+00  0.96087916574E+00  0.51109989000E-03 0. -1.
     -623    1    1    2    0    0  0.27123877442E-01 -0.11474038271E-01  0.20706547603E-02  0.25126717345E+02  0.25126700000E+02 0.  1.
     -611    1    3    3    0    0  0.69312841884E-01  0.39535809721E-02  0.74176531787E+01  0.74179848059E+01  0.10000000000E-01 0.  1.
      611    1    3    3    0    0 -0.43946530298E-01  0.63798378288E-02  0.36208325727E+01  0.36211186834E+01  0.10000000000E-01 0. -1.
</event>
<event>
 6   0  0.6206631E-02  0.9118800E+02  0.7818608E-02  0.1180000E+00
       11   -1    0    0    0    0  0.00000000000E+00  0.00000000000E+00  0.11999999989E+02  0.12000000000E+02  0.51109989000E-03 0. -1.
     -623   -1    0    0    0    0  0.00000000000E+00  0.00000000000E+00  0.42561509872E-11  0.25126700000E+02  0.25126700000E+02 0. -1.
       11    1    1    2    0    0 -0.79024037157E-02  0.11626736702E-01  0.25657624761E-01  0.29260962431E-01  0.51109989000E-03 0. -1.
     -623    1    1    2    0    0  0.93068652295E-02 -0.14211011657E-01  0.64246438788E-02  0.25126706564E+02  0.25126700000E+02 0. -1.
     -611    1    1    2    0    0  0.53530044337E-02 -0.83411639449E-01  0.10446086891E+02  0.10446426063E+02  0.10000000000E-01 0. -1.
      611    1    1    2    0    0 -0.67574659474E-02  0.85995914404E-01  0.15218308299E+01  0.15243064112E+01  0.10000000000E-01 0.  1.
</event>
<event>
 7   0  0.6206631E-02  0.9118800E+02  0.7818608E-02  0.1180000E+00
       11   -1    0    0    0    0  0.00000000000E+00  0.00000000000E+00  0.11999999989E+02  0.12000000000E+02  0.51109989000E-03 0.  1.
     -623   -1    0    0    0    0  0.00000000000E+00  0.00000000000E+00  0.42561509872E-11  0.25126700000E+02  0.25126700000E+02 0.  1.
      622    2    1    2    0    0 -0.81592779211E-01 -0.99751679043E-02  0.11630718286E+02  0.11631343703E+02  0.88270004358E-01 0.  0.
       11    1    1    2    0    0  0.10166862787E+00 -0.10545560968E+00  0.33798538362E+00  0.36836364678E+00  0.51109989000E-03 0.  1.
     -623    1    1    2    0    0 -0.20075848664E-01  0.11543077758E+00  0.31296319271E-01  0.25126992650E+02  0.25126700000E+02 0.  1.
     -611    1    3    3    0    0 -0.47728742080E-01 -0.31844390304E-01  0.32454142764E+01  0.32459368329E+01  0.10000000000E-01 0. -1.
      611    1    3    3    0    0 -0.33864037130E-01  0.21869222400E-01  0.83853040099E+01  0.83854068699E+01  0.10000000000E-01 0.  1.
</event>
<event>
 7   0  0.6206631E-02  0.9118800E+02  0.7818608E-02  0.1180000E+00
       11   -1    0    0    0    0  0.00000000000E+00  0.00000000000E+00  0.11999999989E+02  0.12000000000E+02  0.51109989000E-03 0. -1.
     -623   -1    0    0    0    0  0.00000000000E+00  0.00000000000E+00  0.42561509872E-11  0.25126700000E+02  0.25126700000E+02 0.  1.
      622    2    1    2    0    0 -0.60348210060E-03 -0.73675359021E-02  0.11955274405E+02  0.11955617481E+02  0.90269630836E-01 0.  0.
       11    1    1    2    0    0 -0.50296202873E-02  0.45079448063E-02  0.43861786751E-01  0.44381710273E-01  0.51109989000E-03 0. -1.
     -623    1    1    2    0    0  0.56331023879E-02  0.28595910958E-02  0.86379755832E-03  0.25126700809E+02  0.25126700000E+02 0.  1.
     -611    1    3    3    0    0 -0.21676064990E-01 -0.19538763632E-02  0.90429969481E+00  0.90461682908E+00  0.10000000000E-01 0.  1.
      611    1    3    3    0    0  0.21072582889E-01 -0.54136595389E-02  0.11050974710E+02  0.11051000652E+02  0.10000000000E-01 0. -1.
</event>
<event>
 7   0  0.6206631E-02  0.9118800E+02  0.7818608E-02  0.1180000E+00
       11   -1    0    0    0    0  0.00000000000E+00  0.00000000000E+00  0.11999999989E+02  0.12000000000E+02  0.51109989000E-03 0.  1.
     -623   -1    0    0    0    0  0.00000000000E+00  0.00000000000E+00  0.42561509872E-11  0.25126700000E+02  0.25126700000E+02 0. -1.
      622    2    1    2    0    0 -0.27731234232E-02  0.53841162663E-02  0.11922142791E+02  0.11922491808E+02  0.91024727386E-01 0.  0.
       11    1    1    2    0    0  0.13334541200E-02 -0.62031971515E-02  0.77246302216E-01  0.77508129793E-01  0.51109989000E-03 0.  1.
     -623    1    1    2    0    0  0.14396693032E-02  0.81908088512E-03  0.61089559484E-03  0.25126700062E+02  0.25126700000E+02 0. -1.
     -611    1    3    3    0    0  0.12476892597E-02 -0.24266326534E-01  0.11396577004E+01  0.11399605631E+01  0.10000000000E-01 0. -1.
      611    1    3    3    0    0 -0.40208126828E-02  0.29650442801E-01  0.10782485091E+02  0.10782531245E+02  0.10000000000E-01 0.  1.
</event>
<event>
 7   0  0.6206631E-02  0.9118800E+02  0.7818608E-02  0.1180000E+00
       11   -1    0    0    0    0  0.00000000000E+00  0.00000000000E+00  0.11999999989E+02  0.12000000000E+02  0.51109989000E-03 0.  1.
     -623   -1    0    0    0    0  0.00000000000E+00  0.00000000000E+00  0.42561509872E-11  0.25126700000E+02  0.25126700000E+02 0.  1.
      622    2    1    2    0    0  0.25332559052E-02  0.11693779802E-03  0.11821147490E+02  0.11821318276E+02  0.63493144287E-01 0.  0.
       11    1    1    2    0    0 -0.24979993386E-02 -0.86823261806E-03  0.17866140888E+00  0.17868171164E+00  0.51109989000E-03 0.  1.
     -623    1    1    2    0    0 -0.35256566665E-04  0.75129482004E-03  0.19109021351E-03  0.25126700012E+02  0.25126700000E+02 0.  1.
     -611    1    3    3    0    0  0.14898883285E-01  0.10765269396E-01  0.10601333377E+02  0.10601354029E+02  0.10000000000E-01 0.  1.
      611    1    3    3    0    0 -0.12365627380E-01 -0.10648331598E-01  0.12198141130E+01  0.12199642478E+01  0.10000000000E-01 0. -1.
</event>
<event>
 7   0  0.6206631E-02  0.9118800E+02  0.7818608E-02  0.1180000E+00
       11   -1    0    0    0    0  0.00000000000E+00  0.00000000000E+00  0.11999999989E+02  0.12000000000E+02  0.51109989000E-03 0.  1.
     -623   -1    0    0    0    0  0.00000000000E+00  0.00000000000E+00  0.42561509872E-11  0.25126700000E+02  0.25126700000E+02 0. -1.
      622    2    1    2    0    0 -0.11658523426E-01  0.19638918967E-02  0.11954618814E+02  0.11954857789E+02  0.74659240937E-01 0.  0.
       11    1    1    2    0    0  0.30138316005E-01 -0.26603744627E-01  0.20461223044E-01  0.45110976396E-01  0.51109989000E-03 0.  1.
     -623    1    1    2    0    0 -0.18479792579E-01  0.24639852730E-01  0.24919952289E-01  0.25126731234E+02  0.25126700000E+02 0. -1.
     -611    1    3    3    0    0  0.28658836333E-01  0.80450972483E-02  0.37455634276E+01  0.37456950547E+01  0.10000000000E-01 0. -1.
      611    1    3    3    0    0 -0.40317359759E-01 -0.60812053516E-02  0.82090553862E+01  0.82091627346E+01  0.10000000000E-01 0.  1.
</event>
<event>
 7   0  0.6206631E-02  0.9118800E+02  0.7818608E-02  0.1180000E+00
       11   -1    0    0    0    0  0.00000000000E+00  0.00000000000E+00  0.11999999989E+02  0.12000000000E+02  0.51109989000E-03 0. -1.
     -623   -1    0    0    0    0  0.00000000000E+00  0.00000000000E+00  0.42561509872E-11  0.25126700000E+02  0.25126700000E+02 0. -1.
      622    2    1    2    0    0  0.19684489280E-01  0.27565402156E-02  0.94841346657E+01  0.94852494328E+01  0.14405334930E+00 0.  0.
       11    1    1    2    0    0 -0.14265898215E-01  0.73679184200E-02  0.25146966055E+01  0.25147479160E+01  0.51109989000E-03 0. -1.
     -623    1    1    2    0    0 -0.54185910646E-02 -0.10124458636E-01  0.11687179024E-02  0.25126702651E+02  0.25126700000E+02 0. -1.
     -611    1    3    3    0    0 -0.32647159276E-01  0.48780495641E-01  0.23028335493E+01  0.23036032058E+01  0.10000000000E-01 0. -1.
      611    1    3    3    0    0  0.52331648556E-01 -0.46023955425E-01  0.71813011164E+01  0.71816462271E+01  0.10000000000E-01 0. -1.
</event>
<event>
 7   0  0.6206631E-02  0.9118800E+02  0.7818608E-02  0.1180000E+00
       11   -1    0    0    0    0  0.00000000000E+00  0.00000000000E+00  0.11999999989E+02  0.12000000000E+02  0.51109989000E-03 0.  1.
     -623   -1    0    0    0    0  0.00000000000E+00  0.00000000000E+00  0.42561509872E-11  0.25126700000E+02  0.25126700000E+02 0.  1.
      622    2    1    2    0    0  0.86149922304E-04  0.45945836276E-02  0.11956425335E+02  0.11956773543E+02  0.91135416190E-01 0.  0.
       11    1    1    2    0    0  0.65634016163E-02  0.59615981196E-03  0.42716600940E-01  0.43225025927E-01  0.51109989000E-03 0.  1.
     -623    1    1    2    0    0 -0.66495515386E-02 -0.51907434395E-02  0.85805339596E-03  0.25126701431E+02  0.25126700000E+02 0.  1.
     -611    1    3    3    0    0  0.42276964892E-01 -0.10520742621E-01  0.66018064843E+01  0.66019578069E+01  0.10000000000E-01 0. -1.
      611    1    3    3    0    0 -0.42190814970E-01  0.15115326249E-01  0.53546188505E+01  0.53548157365E+01  0.10000000000E-01 0.  1.
</event>
<event>
 7   0  0.6206631E-02  0.9118800E+02  0.7818608E-02  0.1180000E+00
       11   -1    0    0    0    0  0.00000000000E+00  0.00000000000E+00  0.11999999989E+02  0.12000000000E+02  0.51109989000E-03 0. -1.
     -623   -1    0    0    0    0  0.00000000000E+00  0.00000000000E+00  0.42561509872E-11  0.25126700000E+02  0.25126700000E+02 0. -1.
      622    2    1    2    0    0  0.23517962619E-02 -0.29559980798E-01  0.11270817083E+02  0.11271188523E+02  0.86566104493E-01 0.  0.
       11    1    1    2    0    0  0.37444497283E-01  0.46319398314E-02  0.72779004298E+00  0.72876755768E+00  0.51109989000E-03 0. -1.
     -623    1    1    2    0    0 -0.39796293545E-01  0.24928040967E-01  0.13928635456E-02  0.25126743919E+02  0.25126700000E+02 0. -1.
     -611    1    3    3    0    0  0.10475984499E-01 -0.21385969034E-01  0.10929535733E+02  0.10929566251E+02  0.10000000000E-01 0. -1.
      611    1    3    3    0    0 -0.81241882367E-02 -0.81740117638E-02  0.34128134951E+00  0.34162227156E+00  0.10000000000E-01 0.  1.
</event>
<event>
 7   0  0.6206631E-02  0.9118800E+02  0.7818608E-02  0.1180000E+00
       11   -1    0    0    0    0  0.00000000000E+00  0.00000000000E+00  0.11999999989E+02  0.12000000000E+02  0.51109989000E-03 0.  1.
     -623   -1    0    0    0    0  0.00000000000E+00  0.00000000000E+00  0.42561509872E-11  0.25126700000E+02  0.25126700000E+02 0.  1.
      622    2    1    2    0    0 -0.73306610760E-02  0.55295579799E-01  0.65349530623E+01  0.65361147894E+01  0.10988027431E+00 0.  0.
       11    1    1    2    0    0  0.63239640994E-02 -0.45650350380E-01  0.54636889127E+01  0.54638833025E+01  0.51109989000E-03 0.  1.
     -623    1    1    2    0    0  0.10066969765E-02 -0.96452294183E-02  0.13580141315E-02  0.25126701908E+02  0.25126700000E+02 0.  1.
     -611    1    3    3    0    0 -0.56969807472E-01  0.37460916458E-01  0.33416522921E+01  0.33423627751E+01  0.10000000000E-01 0.  1.
      611    1    3    3    0    0  0.49639146396E-01  0.17834663341E-01  0.31933007702E+01  0.31937520143E+01  0.10000000000E-01 0. -1.
</event>
<event>
 7   0  0.6206631E-02  0.9118800E+02  0.7818608E-02  0.1180000E+00
       11   -1    0    0    0    0  0.00000000000E+00  0.00000000000E+00  0.11999999989E+02  0.12000000000E+02  0.51109989000E-03 0.  1.
     -623   -1    0    0    0    0  0.00000000000E+00  0.00000000000E+00  0.42561509872E-11  0.25126700000E+02  0.25126700000E+02 0. -1.
      622    2    1    2    0    0 -0.12361535697E-01 -0.15071562526E-01  0.11322357684E+02  0.11323702633E+02  0.17342964438E+00 0.  0.
       11    1    1    2    0    0  0.82052583996E-02  0.20236021089E-02  0.67624059731E+00  0.67629359594E+00  0.51109989000E-03 0.  1.
     -623    1    1    2    0    0  0.41562772977E-02  0.13047960418E-01  0.14017076279E-02  0.25126703771E+02  0.25126700000E+02 0. -1.
     -611    1    3    3    0    0 -0.15302170400E-01 -0.32366749631E-02  0.11229493944E+02  0.11229509289E+02  0.10000000000E-01 0.  1.
      611    1    3    3    0    0  0.29406347022E-02 -0.11834887563E-01  0.92863740080E-01  0.94193344339E-01  0.10000000000E-01 0.  1.
</event>
<event>
 7   0  0.6206631E-02  0.9118800E+02  0.7818608E-02  0.1180000E+00
       11   -1    0    0    0    0  0.00000000000E+00  0.00000000000E+00  0.11999999989E+02  0.12000000000E+02  0.51109989000E-03 0.  1.
     -623   -1    0    0    0    0  0.00000000000E+00  0.00000000000E+00  0.42561509872E-11  0.25126700000E+02  0.25126700000E+02 0. -1.
      622    2    1    2    0    0 -0.54834910728E-03  0.12671395002E-03  0.11995131031E+02  0.11995644335E+02  0.11096958965E+00 0.  0.
       11    1    1    2    0    0 -0.19400124038E-02  0.44639301009E-03  0.38400992062E-02  0.43555137321E-02  0.51109989000E-03 0.  1.
     -623    1    1    2    0    0  0.24883615110E-02 -0.57310696011E-03  0.10288586943E-02  0.25126700151E+02  0.25126700000E+02 0. -1.
     -611    1    3    3    0    0  0.36612425031E-02 -0.48668792799E-01  0.86112392199E+01  0.86113833360E+01  0.10000000000E-01 0.  1.
      611    1    3    3    0    0 -0.42095916104E-02  0.48795506749E-01  0.33838918113E+01  0.33842609995E+01  0.10000000000E-01 0. -1.
</event>
<event>
 7   0  0.6206631E-02  0.9118800E+02  0.7818608E-02  0.1180000E+00
       11   -1    0    0    0    0  0.00000000000E+00  0.00000000000E+00  0.11999999989E+02  0.12000000000E+02  0.51109989000E-03 0. -1.
     -623   -1    0    0    0    0  0.00000000000E+00  0.00000000000E+00  0.42561509872E-11  0.25126700000E+02  0.25126700000E+02 0.  1.
      622    2    1    2    0    0 -0.99502762695E-02 -0.13120331612E-01  0.11663298320E+02  0.11663527078E+02  0.71169244479E-01 0.  0.
       11    1    1    2    0    0  0.62477869311E-02 -0.32503831774E-02  0.33639321095E+00  0.33646731406E+00  0.51109989000E-03 0. -1.
     -623    1    1    2    0    0  0.37024893383E-02  0.16370714790E-01  0.30845850739E-03  0.25126705608E+02  0.25126700000E+02 0.  1.
     -611    1    3    3    0    0 -0.24998726859E-01 -0.45053553324E-02  0.10629144987E+02  0.10629180043E+02  0.10000000000E-01 0. -1.
      611    1    3    3    0    0  0.15048450589E-01 -0.86149762799E-02  0.10341533323E+01  0.10343470348E+01  0.10000000000E-01 0.  1.
</event>
<event>
 7   0  0.6206631E-02  0.9118800E+02  0.7818608E-02  0.1180000E+00
       11   -1    0    0    0    0  0.00000000000E+00  0.00000000000E+00  0.11999999989E+02  0.12000000000E+02  0.51109989000E-03 0.  1.
     -623   -1    0    0    0    0  0.00000000000E+00  0.00000000000E+00  0.42561509872E-11  0.25126700000E+02  0.25126700000E+02 0. -1.
      622    2    1    2    0    0  0.13316946398E-01 -0.14716939284E-01  0.11870759403E+02  0.11871625282E+02  0.14200037767E+00 0.  0.
       11    1    1    2    0    0  0.48690578430E-02  0.15855726123E-01  0.12729092438E+00  0.12836803507E+00  0.51109989000E-03 0.  1.
     -623    1    1    2    0    0 -0.18186004241E-01 -0.11387868389E-02  0.19496616984E-02  0.25126706683E+02  0.25126700000E+02 0. -1.
     -611    1    3    3    0    0 -0.15245251884E-01 -0.64029934439E-01  0.33049548655E+01  0.33056253438E+01  0.10000000000E-01 0.  1.
      611    1    3    3    0    0  0.28562198283E-01  0.49312995155E-01  0.85658045375E+01  0.85659999384E+01  0.10000000000E-01 0. -1.
</event>
<event>
 7   0  0.6206631E-02  0.9118800E+02  0.7818608E-02  0.1180000E+00
       11   -1    0    0    0    0  0.00000000000E+00  0.00000000000E+00  0.11999999989E+02  0.12000000000E+02  0.51109989000E-03 0. -1.
     -623   -1    0    0    0    0  0.00000000000E+00  0.00000000000E+00  0.42561509872E-11  0.25126700000E+02  0.25126700000E+02 0. -1.
      622    2    1    2    0    0 -0.20235257691E-01 -0.20049550252E-01  0.11575294476E+02  0.11575878735E+02  0.11276004973E+00 0.  0.
       11    1    1    2    0    0  0.10028150945E-01  0.16065260762E-02  0.42399048695E+00  0.42411241314E+00  0.51109989000E-03 0. -1.
     -623    1    1    2    0    0  0.10207106746E-01  0.18443024176E-01  0.71502617882E-03  0.25126708852E+02  0.25126700000E+02 0. -1.
     -611    1    3    3    0    0 -0.55898701208E-01  0.42053453615E-02  0.35023156903E+01  0.35027785462E+01  0.10000000000E-01 0.  1.
      611    1    3    3    0    0  0.35663443517E-01 -0.24254895614E-01  0.80729787857E+01  0.80731001886E+01  0.10000000000E-01 0. -1.
</event>
<event>
 6   0  0.6206631E-02  0.9118800E+02  0.7818608E-02  0.1180000E+00
       11   -1    0    0    0    0  0.00000000000E+00  0.00000000000E+00  0.11999999989E+02  0.12000000000E+02  0.51109989000E-03 0.  1.
     -623   -1    0    0    0    0  0.00000000000E+00  0.00000000000E+00  0.42561509872E-11  0.25126700000E+02  0.25126700000E+02 0. -1.
       11    1    1    2    0    0  0.57807497800E-04  0.62473513766E-02  0.33718813597E+00  0.33724639806E+00  0.51109989000E-03 0.  1.
     -623    1    1    2    0    0  0.39389803905E-02 -0.64137822803E-03  0.23161808570E-02  0.25126700424E+02  0.25126700000E+02 0. -1.
     -611    1    1    2    0    0 -0.29307542175E-01  0.36457969109E-01  0.11078999299E+02  0.11079102562E+02  0.10000000000E-01 0.  1.
      611    1    1    2    0    0  0.25310754287E-01 -0.42063942258E-01  0.58149637313E+00  0.58365061594E+00  0.10000000000E-01 0. -1.
</event>
<event>
 7   0  0.6206631E-02  0.9118800E+02  0.7818608E-02  0.1180000E+00
       11   -1    0    0    0    0  0.00000000000E+00  0.00000000000E+00  0.11999999989E+02  0.12000000000E+02  0.51109989000E-03 0. -1.
     -623   -1    0    0    0    0  0.00000000000E+00  0.00000000000E+00  0.42561509872E-11  0.25126700000E+02  0.25126700000E+02 0.  1.
      622    2    1    2    0    0 -0.99258387346E-03 -0.39143877250E-02  0.11974482575E+02  0.11974921641E+02  0.10246494675E+00 0.  0.
       11    1    1    2    0    0 -0.75881573130E-02 -0.10268440418E-02  0.23873160306E-01  0.25076354324E-01  0.51109989000E-03 0. -1.
     -623    1    1    2    0    0  0.85807411865E-02  0.49412317668E-02  0.16442541077E-02  0.25126702005E+02  0.25126700000E+02 0.  1.
     -611    1    3    3    0    0  0.22027886533E-01  0.10521403527E-01  0.10945488599E+02  0.10945520389E+02  0.10000000000E-01 0. -1.
      611    1    3    3    0    0 -0.23020470407E-01 -0.14435791252E-01  0.10289939761E+01  0.10294012517E+01  0.10000000000E-01 0.  1.
</event>
<event>
 7   0  0.6206631E-02  0.9118800E+02  0.7818608E-02  0.1180000E+00
       11   -1    0    0    0    0  0.00000000000E+00  0.00000000000E+00  0.11999999989E+02  0.12000000000E+02  0.51109989000E-03 0.  1.
     -623   -1    0    0    0    0  0.00000000000E+00  0.00000000000E+00  0.42561509872E-11  0.25126700000E+02  0.25126700000E+02 0. -1.
      622    2    1    2    0    0  0.64475435303E-02  0.11947580756E+00  0.74338555792E+01  0.74357830362E+01  0.11976873635E+00 0.  0.
       11    1    1    2    0    0 -0.14571786122E-01 -0.12249630269E+00  0.45625478139E+01  0.45642152114E+01  0.51109989000E-03 0.  1.
     -623    1    1    2    0    0  0.81242425918E-02  0.30204951342E-02  0.35965960764E-02  0.25126701752E+02  0.25126700000E+02 0. -1.
     -611    1    3    3    0    0 -0.15038459132E-01  0.44574920470E-01  0.78978651377E+00  0.79124952835E+00  0.10000000000E-01 0. -1.
      611    1    3    3    0    0  0.21486002662E-01  0.74900887088E-01  0.66440690654E+01  0.66445335079E+01  0.10000000000E-01 0.  1.
</event>
<event>
 7   0  0.6206631E-02  0.9118800E+02  0.7818608E-02  0.1180000E+00
       11   -1    0    0    0    0  0.00000000000E+00  0.00000000000E+00  0.11999999989E+02  0.12000000000E+02  0.51109989000E-03 0.  1.
     -623   -1    0    0    0    0  0.00000000000E+00  0.00000000000E+00  0.42561509872E-11  0.25126700000E+02  0.25126700000E+02 0.  1.
      622    2    1    2    0    0  0.17708137328E+00  0.10328346354E+00  0.97274668557E+01  0.97313893321E+01  0.18520695965E+00 0.  0.
       11    1    1    2    0    0 -0.13725066175E+00 -0.23673121633E-03  0.22642102708E+01  0.22683664192E+01  0.51109989000E-03 0.  1.
     -623    1    1    2    0    0 -0.39830711523E-01 -0.10304673233E+00  0.83228625982E-02  0.25126944249E+02  0.25126700000E+02 0.  1.
     -611    1    3    3    0    0 -0.14800469835E-01 -0.34383621242E-01  0.17099713987E+01  0.17104103226E+01  0.10000000000E-01 0. -1.
      611    1    3    3    0    0  0.19188184311E+00  0.13766708479E+00  0.80174954570E+01  0.80209790096E+01  0.10000000000E-01 0.  1.
</event>
<event>
 7   0  0.6206631E-02  0.9118800E+02  0.7818608E-02  0.1180000E+00
       11   -1    0    0    0    0  0.00000000000E+00  0.00000000000E+00  0.11999999989E+02  0.12000000000E+02  0.51109989000E-03 0. -1.
     -623   -1    0    0    0    0  0.00000000000E+00  0.00000000000E+00  0.42561509872E-11  0.25126700000E+02  0.25126700000E+02 0.  1.
      622    2    1    2    0    0  0.44934891200E-02 -0.37420625146E-02  0.79113634762E+01  0.79121325005E+01  0.11015651528E+00 0.  0.
       11    1    1    2    0    0 -0.65162298546E-04 -0.23675800879E-03  0.40878667431E+01  0.40878667825E+01  0.51109989000E-03 0. -1.
     -623    1    1    2    0    0 -0.44283268215E-02  0.39788205234E-02  0.76976974846E-03  0.25126700717E+02  0.25126700000E+02 0.  1.
     -611    1    3    3    0    0  0.11701498745E-01  0.21767034766E-01  0.49672729289E+00  0.49744218999E+00  0.10000000000E-01 0.  1.
      611    1    3    3    0    0 -0.72080096252E-02 -0.25509097280E-01  0.74146361833E+01  0.74146903105E+01  0.10000000000E-01 0.  1.
</event>
<event>
 7   0  0.6206631E-02  0.9118800E+02  0.7818608E-02  0.1180000E+00
       11   -1    0    0    0    0  0.00000000000E+00  0.00000000000E+00  0.11999999989E+02  0.12000000000E+02  0.51109989000E-03 0.  1.
     -623   -1    0    0    0    0  0.00000000000E+00  0.00000000000E+00  0.42561509872E-11  0.25126700000E+02  0.25126700000E+02 0.  1.
      622    2    1    2    0    0  0.57537425401E-02 -0.36001375431E-02  0.11968864379E+02  0.11968933434E+02  0.40087057683E-01 0.  0.
       11    1    1    2    0    0 -0.58621353410E-02  0.30638266212E-02  0.30349917552E-01  0.31066547650E-01  0.51109989000E-03 0.  1.
     -623    1    1    2    0    0  0.10839280092E-03  0.53631092188E-03  0.78569304848E-03  0.25126700018E+02  0.25126700000E+02 0.  1.
     -611    1    3    3    0    0  0.60285083937E-02 -0.14003520422E-01  0.28863395136E+01  0.28863971018E+01  0.10000000000E-01 0.  1.
      611    1    3    3    0    0 -0.27476585362E-03  0.10403382879E-01  0.90825248650E+01  0.90825363324E+01  0.10000000000E-01 0. -1.
</event>
<event>
 7   0  0.6206631E-02  0.9118800E+02  0.7818608E-02  0.1180000E+00
       11   -1    0    0    0    0  0.00000000000E+00  0.00000000000E+00  0.11999999989E+02  0.12000000000E+02  0.51109989000E-03 0. -1.
     -623   -1    0    0    0    0  0.00000000000E+00  0.00000000000E+00  0.42561509872E-11  0.25126700000E+02  0.25126700000E+02 0. -1.
      622    2    1    2    0    0 -0.17260901886E-01  0.45486156599E-02  0.11557125571E+02  0.11557688340E+02  0.11264844940E+00 0.  0.
       11    1    1    2    0    0 -0.61453770363E-02 -0.18561380110E-01  0.44186415803E+00  0.44229683004E+00  0.51109989000E-03 0. -1.
     -623    1    1    2    0    0  0.23406278922E-01  0.14012764450E-01  0.10102596602E-02  0.25126714829E+02  0.25126700000E+02 0. -1.
     -611    1    3    3    0    0  0.29657361539E-01 -0.13651201837E-01  0.13433200809E+01  0.13437539783E+01  0.10000000000E-01 0.  1.
      611    1    3    3    0    0 -0.46918263425E-01  0.18199817497E-01  0.10213805490E+02  0.10213934362E+02  0.10000000000E-01 0. -1.
</event>
<event>
 7   0  0.6206631E-02  0.9118800E+02  0.7818608E-02  0.1180000E+00
       11   -1    0    0    0    0  0.00000000000E+00  0.00000000000E+00  0.11999999989E+02  0.12000000000E+02  0.51109989000E-03 0.  1.
     -623   -1    0    0    0    0  0.00000000000E+00  0.00000000000E+00  0.42561509872E-11  0.25126700000E+02  0.25126700000E+02 0.  1.
      622    2    1    2    0    0 -0.11888371459E-02  0.81684679334E-03  0.11997562412E+02  0.11998126401E+02  0.11632373819E+00 0.  0.
       11    1    1    2    0    0  0.48888568584E-03  0.14016672847E-02  0.10222121184E-02  0.18734516677E-02  0.51109989000E-03 0.  1.
     -623    1    1    2    0    0  0.69995146004E-03 -0.22185140781E-02  0.14153647255E-02  0.25126700148E+02  0.25126700000E+02 0.  1.
     -611    1    3    3    0    0 -0.10857624211E-01  0.54091233572E-01  0.42744745060E+01  0.42748422254E+01  0.10000000000E-01 0. -1.
      611    1    3    3    0    0  0.96687870648E-02 -0.53274386779E-01  0.77230879063E+01  0.77232841754E+01  0.10000000000E-01 0.  1.
</event>
<event>
 7   0  0.6206631E-02  0.9118800E+02  0.7818608E-02  0.1180000E+00
       11   -1    0    0    0    0  0.00000000000E+00  0.00000000000E+00  0.11999999989E+02  0.12000000000E+02  0.51109989000E-03 0.  1.
     -623   -1    0    0    0    0  0.00000000000E+00  0.00000000000E+00  0.42561509872E-11  0.25126700000E+02  0.25126700000E+02 0.  1.
      622    2    1    2    0    0  0.21482484718E-02 -0.10359223310E-01  0.79384818996E+01  0.79390297711E+01  0.92665565414E-01 0.  0.
       11    1    1    2    0    0 -0.63888839367E-02  0.15137386937E-01  0.40609361396E+01  0.40609694100E+01  0.51109989000E-03 0.  1.
     -623    1    1    2    0    0  0.42406354648E-02 -0.47781636269E-02  0.58194994065E-03  0.25126700819E+02  0.25126700000E+02 0.  1.
     -611    1    3    3    0    0  0.45912081724E-01 -0.81945707677E-02  0.36267448658E+01  0.36270585040E+01  0.10000000000E-01 0. -1.
      611    1    3    3    0    0 -0.43763833252E-01 -0.21646525421E-02  0.43117370339E+01  0.43119712671E+01  0.10000000000E-01 0.  1.
</event>
<event>
 7   0  0.6206631E-02  0.9118800E+02  0.7818608E-02  0.1180000E+00
       11   -1    0    0    0    0  0.00000000000E+00  0.00000000000E+00  0.11999999989E+02  0.12000000000E+02  0.51109989000E-03 0. -1.
     -623   -1    0    0    0    0  0.00000000000E+00  0.00000000000E+00  0.42561509872E-11  0.25126700000E+02  0.25126700000E+02 0. -1.
      622    2    1    2    0    0  0.18198353057E-01 -0.85294784263E-01  0.96410347580E+01  0.96417519435E+01  0.78885707452E-01 0.  0.
       11    1    1    2    0    0 -0.11158037301E-01  0.96348105786E-01  0.23562490030E+01  0.23582444922E+01  0.51109989000E-03 0. -1.
     -623    1    1    2    0    0 -0.70403157562E-02 -0.11053321523E-01  0.27162280845E-02  0.25126703564E+02  0.25126700000E+02 0. -1.
     -611    1    3    3    0    0  0.38613030384E-01 -0.83741225462E-01  0.83601289586E+01  0.83606435018E+01  0.10000000000E-01 0. -1.
      611    1    3    3    0    0 -0.20414677327E-01 -0.15535588006E-02  0.12809057994E+01  0.12811084417E+01  0.10000000000E-01 0.  1.
</event>
<event>
 7   0  0.6206631E-02  0.9118800E+02  0.7818608E-02  0.1180000E+00
       11   -1    0    0    0    0  0.00000000000E+00  0.00000000000E+00  0.11999999989E+02  0.12000000000E+02  0.51109989000E-03 0.  1.
     -623   -1    0    0    0    0  0.00000000000E+00  0.00000000000E+00  0.42561509872E-11  0.25126700000E+02  0.25126700000E+02 0.  1.
      622    2    1    2    0    0  0.34341882298E-01  0.19881962079E-01  0.11868388910E+02  0.11868879940E+02  0.10040443010E+00 0.  0.
       11    1    1    2    0    0 -0.38214979381E-01 -0.45459722988E-01  0.11687862679E+00  0.13110242441E+00  0.51109989000E-03 0.  1.
     -623    1    1    2    0    0  0.38730970831E-02  0.25577760908E-01  0.14732452536E-01  0.25126717636E+02  0.25126700000E+02 0.  1.
     -611    1    3    3    0    0  0.81045768545E-02  0.58395484769E-01  0.71661462682E+01  0.71663957506E+01  0.10000000000E-01 0. -1.
      611    1    3    3    0    0  0.26237305443E-01 -0.38513522690E-01  0.47022426416E+01  0.47024841890E+01  0.10000000000E-01 0.  1.
</event>
<event>
 7   0  0.6206631E-02  0.9118800E+02  0.7818608E-02  0.1180000E+00
       11   -1    0    0    0    0  0.00000000000E+00  0.00000000000E+00  0.11999999989E+02  0.12000000000E+02  0.51109989000E-03 0.  1.
     -623   -1    0    0    0    0  0.00000000000E+00  0.00000000000E+00  0.42561509872E-11  0.25126700000E+02  0.25126700000E+02 0.  1.
      622    2    1    2    0    0 -0.52006746906E-02  0.58464385462E-02  0.11722674909E+02  0.11723134111E+02  0.10346560728E+00 0.  0.
       11    1    1    2    0    0 -0.15012825051E-01 -0.14327612232E-01  0.27607694927E+00  0.27685629581E+00  0.51109989000E-03 0.  1.
     -623    1    1    2    0    0  0.20213499742E-01  0.84811736856E-02  0.12481304030E-02  0.25126709593E+02  0.25126700000E+02 0.  1.
     -611    1    3    3    0    0 -0.16371114248E-01 -0.41915033426E-01  0.34527628019E+01  0.34530704959E+01  0.10000000000E-01 0.  1.
      611    1    3    3    0    0  0.11170439558E-01  0.47761471973E-01  0.82699121076E+01  0.82700636155E+01  0.10000000000E-01 0. -1.
</event>
<event>
 7   0  0.6206631E-02  0.9118800E+02  0.7818608E-02  0.1180000E+00
       11   -1    0    0    0    0  0.00000000000E+00  0.00000000000E+00  0.11999999989E+02  0.12000000000E+02  0.51109989000E-03 0. -1.
     -623   -1    0    0    0    0  0.00000000000E+00  0.00000000000E+00  0.42561509872E-11  0.25126700000E+02  0.25126700000E+02 0. -1.
      622    2    1    2    0    0 -0.34251386395E-02 -0.69132851330E-02  0.11923141088E+02  0.11923606501E+02  0.10506696046E+00 0.  0.
       11    1    1    2    0    0  0.91313251727E-02  0.37165021462E-02  0.75752083560E-01  0.76392623168E-01  0.51109989000E-03 0. -1.
     -623    1    1    2    0    0 -0.57061865331E-02  0.31967829868E-02  0.11068175970E-02  0.25126700876E+02  0.25126700000E+02 0. -1.
     -611    1    3    3    0    0 -0.21355461877E-01 -0.13385292641E-01  0.11388438402E+02  0.11388470681E+02  0.10000000000E-01 0. -1.
      611    1    3    3    0    0  0.17930323237E-01  0.64720075080E-02  0.53470268600E+00  0.53513581994E+00  0.10000000000E-01 0.  1.
</event>
<event>
 7   0  0.6206631E-02  0.9118800E+02  0.7818608E-02  0.1180000E+00
       11   -1    0    0    0    0  0.00000000000E+00  0.00000000000E+00  0.11999999989E+02  0.12000000000E+02  0.51109989000E-03 0.  1.
     -623   -1    0    0    0    0  0.00000000000E+00  0.00000000000E+00  0.42561509872E-11  0.25126700000E+02  0.25126700000E+02 0. -1.
      622    2    1    2    0    0  0.39315735476E-02  0.40020437551E-01  0.82926672148E+01  0.82934863729E+01  0.10940562399E+00 0.  0.
       11    1    1    2    0    0 -0.13952762014E-01 -0.40340483398E-01  0.37062657724E+01  0.37065116040E+01  0.51109989000E-03 0.  1.
     -623    1    1    2    0    0  0.10021188466E-01  0.32004584670E-03  0.10670020051E-02  0.25126702023E+02  0.25126700000E+02 0. -1.
     -611    1    3    3    0    0  0.39391321150E-01  0.47017574511E-01  0.69984863108E+01  0.69987622457E+01  0.10000000000E-01 0.  1.
      611    1    3    3    0    0 -0.35459747602E-01 -0.69971369600E-02  0.12941809039E+01  0.12947241273E+01  0.10000000000E-01 0.  1.
</event>
<event>
 7   0  0.6206631E-02  0.9118800E+02  0.7818608E-02  0.1180000E+00
       11   -1    0    0    0    0  0.00000000000E+00  0.00000000000E+00  0.11999999989E+02  0.12000000000E+02  0.51109989000E-03 0.  1.
     -623   -1    0    0    0    0  0.00000000000E+00  0.00000000000E+00  0.42561509872E-11  0.25126700000E+02  0.25126700000E+02 0.  1.
      622    2    1    2    0    0 -0.18714307354E-01 -0.36307695590E-01  0.65783677538E+01  0.65794751702E+01  0.11359021004E+00 0.  0.
       11    1    1    2    0    0  0.13179170490E-01 -0.63112937115E-01  0.54199439764E+01  0.54203274718E+01  0.51109989000E-03 0.  1.
     -623    1    1    2    0    0  0.55351368639E-02  0.99420632704E-01  0.16882588778E-02  0.25126897358E+02  0.25126700000E+02 0.  1.
     -611    1    3    3    0    0  0.12019288434E-01 -0.65307735296E-01  0.51752329539E+01  0.51756686226E+01  0.10000000000E-01 0.  1.
      611    1    3    3    0    0 -0.30733595788E-01  0.29000039706E-01  0.14031347999E+01  0.14038065476E+01  0.10000000000E-01 0.  1.
</event>
<event>
 6   0  0.6206631E-02  0.9118800E+02  0.7818608E-02  0.1180000E+00
       11   -1    0    0    0    0  0.00000000000E+00  0.00000000000E+00  0.11999999989E+02  0.12000000000E+02  0.51109989000E-03 0. -1.
     -623   -1    0    0    0    0  0.00000000000E+00  0.00000000000E+00  0.42561509872E-11  0.25126700000E+02  0.25126700000E+02 0. -1.
       11    1    1    2    0    0 -0.41717028445E-01  0.34211082130E-01  0.34323122447E+01  0.34327362723E+01  0.51109989000E-03 0. -1.
     -623    1    1    2    0    0 -0.14648607450E-01  0.32594996822E-02  0.87782913338E-02  0.25126706015E+02  0.25126700000E+02 0. -1.
     -611    1    1    2    0    0  0.14431809225E+00 -0.41223384314E-01  0.14472267775E+01  0.14550231698E+01  0.10000000000E-01 0.  1.
      611    1    1    2    0    0 -0.87952456353E-01  0.37528025023E-02  0.71116826756E+01  0.71122345431E+01  0.10000000000E-01 0. -1.
</event>
<event>
 7   0  0.6206631E-02  0.9118800E+02  0.7818608E-02  0.1180000E+00
       11   -1    0    0    0    0  0.00000000000E+00  0.00000000000E+00  0.11999999989E+02  0.12000000000E+02  0.51109989000E-03 0.  1.
     -623   -1    0    0    0    0  0.00000000000E+00  0.00000000000E+00  0.42561509872E-11  0.25126700000E+02  0.25126700000E+02 0. -1.
      622    2    1    2    0    0 -0.79892184038E-01 -0.12929513232E-01  0.11360301727E+02  0.11361082663E+02  0.10580180069E+00 0.  0.
       11    1    1    2    0    0  0.11122703766E+00  0.31540975877E-01  0.62834048193E+00  0.63888833885E+00  0.51109989000E-03 0.  1.
     -623    1    1    2    0    0 -0.31334853618E-01 -0.18611462645E-01  0.11357780561E-01  0.25126728998E+02  0.25126700000E+02 0. -1.
     -611    1    3    3    0    0 -0.78349728233E-01  0.78514230175E-02  0.10815043743E+02  0.10815335015E+02  0.10000000000E-01 0.  1.
      611    1    3    3    0    0 -0.15424558053E-02 -0.20780936250E-01  0.54525798365E+00  0.54574764792E+00  0.10000000000E-01 0. -1.
</event>
<event>
 7   0  0.6206631E-02  0.9118800E+02  0.7818608E-02  0.1180000E+00
       11   -1    0    0    0    0  0.00000000000E+00  0.00000000000E+00  0.11999999989E+02  0.12000000000E+02  0.51109989000E-03 0. -1.
     -623   -1    0    0    0    0  0.00000000000E+00  0.00000000000E+00  0.42561509872E-11  0.25126700000E+02  0.25126700000E+02 0.  1.
      622    2    1    2    0    0  0.49431496809E-02 -0.13440212307E-01  0.11556656485E+02  0.11557472788E+02  0.13661277226E+00 0.  0.
       11    1    1    2    0    0 -0.71760891456E-03  0.63361253785E-02  0.44247959772E+00  0.44252583774E+00  0.51109989000E-03 0. -1.
     -623    1    1    2    0    0 -0.42255407664E-02  0.71040869282E-02  0.86390615707E-03  0.25126701374E+02  0.25126700000E+02 0.  1.
     -611    1    3    3    0    0  0.51209441031E-01  0.34551981601E-01  0.37194268206E+01  0.37199532417E+01  0.10000000000E-01 0.  1.
      611    1    3    3    0    0 -0.46266291350E-01 -0.47992193908E-01  0.78372296646E+01  0.78375195461E+01  0.10000000000E-01 0. -1.
</event>
<event>
 7   0  0.6206631E-02  0.9118800E+02  0.7818608E-02  0.1180000E+00
       11   -1    0    0    0    0  0.00000000000E+00  0.00000000000E+00  0.11999999989E+02  0.12000000000E+02  0.51109989000E-03 0.  1.
     -623   -1    0    0    0    0  0.00000000000E+00  0.00000000000E+00  0.42561509872E-11  0.25126700000E+02  0.25126700000E+02 0.  1.
      622    2    1    2    0    0  0.94959262797E-02 -0.54573149865E-02  0.11968691686E+02  0.11969052458E+02  0.92282770389E-01 0.  0.
       11    1    1    2    0    0 -0.65482690359E-02  0.10146774930E-02  0.30224878846E-01  0.30946953359E-01  0.51109989000E-03 0.  1.
     -623    1    1    2    0    0 -0.29476572438E-02  0.44426374936E-02  0.10834245035E-02  0.25126700589E+02  0.25126700000E+02 0.  1.
     -611    1    3    3    0    0  0.23247501847E-01 -0.11571549493E-01  0.11197164176E+01  0.11200621425E+01  0.10000000000E-01 0.  1.
      611    1    3    3    0    0 -0.13751575568E-01  0.61142345061E-02  0.10848975268E+02  0.10848990315E+02  0.10000000000E-01 0.  1.
</event>
<event>
 7   0  0.6206631E-02  0.9118800E+02  0.7818608E-02  0.1180000E+00
       11   -1    0    0    0    0  0.00000000000E+00  0.00000000000E+00  0.11999999989E+02  0.12000000000E+02  0.51109989000E-03 0. -1.
     -623   -1    0    0    0    0  0.00000000000E+00  0.00000000000E+00  0.42561509872E-11  0.25126700000E+02  0.25126700000E+02 0.  1.
      622    2    1    2    0    0 -0.64877901615E-03  0.29787275319E-02  0.11982230595E+02  0.11982448049E+02  0.72124264391E-01 0.  0.
       11    1    1    2    0    0  0.52762564813E-02 -0.10619322822E-01  0.12927829153E-01  0.17549897135E-01  0.51109989000E-03 0. -1.
     -623    1    1    2    0    0 -0.46274774651E-02  0.76405952898E-02  0.48415648504E-02  0.25126702054E+02  0.25126700000E+02 0.  1.
     -611    1    3    3    0    0 -0.25860110007E-01  0.19457591830E-01  0.36542248883E+01  0.36543818735E+01  0.10000000000E-01 0.  1.
      611    1    3    3    0    0  0.25211330991E-01 -0.16478864298E-01  0.83280057068E+01  0.83280661750E+01  0.10000000000E-01 0. -1.
</event>
<event>
 7   0  0.6206631E-02  0.9118800E+02  0.7818608E-02  0.1180000E+00
       11   -1    0    0    0    0  0.00000000000E+00  0.00000000000E+00  0.11999999989E+02  0.12000000000E+02  0.51109989000E-03 0.  1.
     -623   -1    0    0    0    0  0.00000000000E+00  0.00000000000E+00  0.42561509872E-11  0.25126700000E+02  0.25126700000E+02 0.  1.
      622    2    1    2    0    0  0.40556327781E-02  0.57759757245E-02  0.11988004061E+02  0.11988589674E+02  0.11828436865E+00 0.  0.
       11    1    1    2    0    0 -0.16227649856E-02  0.50091294838E-02  0.10107049428E-01  0.11407822563E-01  0.51109989000E-03 0.  1.
     -623    1    1    2    0    0 -0.24328677925E-02 -0.10785105208E-01  0.18888785432E-02  0.25126702503E+02  0.25126700000E+02 0.  1.
     -611    1    3    3    0    0 -0.40563826189E-01  0.38772038925E-01  0.77646455284E+01  0.77648547234E+01  0.10000000000E-01 0.  1.
      611    1    3    3    0    0  0.44619458967E-01 -0.32996063201E-01  0.42233585328E+01  0.42237349506E+01  0.10000000000E-01 0. -1.
</event>
<event>
 7   0  0.6206631E-02  0.9118800E+02  0.7818608E-02  0.1180000E+00
       11   -1    0    0    0    0  0.00000000000E+00  0.00000000000E+00  0.11999999989E+02  0.12000000000E+02  0.51109989000E-03 0.  1.
     -623   -1    0    0    0    0  0.00000000000E+00  0.00000000000E+00  0.42561509872E-11  0.25126700000E+02  0.25126700000E+02 0. -1.
      622    2    1    2    0    0 -0.11590210308E+00 -0.71671716095E-01  0.49301810648E+01  0.49340474443E+01  0.13988823519E+00 0.  0.
       11    1    1    2    0    0  0.97089571890E-01  0.69932415530E-01  0.70649317929E+01  0.70659449777E+01  0.51109989000E-03 0.  1.
     -623    1    1    2    0    0  0.18812531191E-01  0.17393005649E-02  0.48871313643E-02  0.25126707578E+02  0.25126700000E+02 0. -1.
     -611    1    3    3    0    0 -0.21706365817E-01  0.41259091323E-01  0.11088257332E+01  0.11098504339E+01  0.10000000000E-01 0. -1.
      611    1    3    3    0    0 -0.94195737263E-01 -0.11293080742E+00  0.38213553316E+01  0.38241970104E+01  0.10000000000E-01 0.  1.
</event>
<event>
 7   0  0.6206631E-02  0.9118800E+02  0.7818608E-02  0.1180000E+00
       11   -1    0    0    0    0  0.00000000000E+00  0.00000000000E+00  0.11999999989E+02  0.12000000000E+02  0.51109989000E-03 0.  1.
     -623   -1    0    0    0    0  0.00000000000E+00  0.00000000000E+00  0.42561509872E-11  0.25126700000E+02  0.25126700000E+02 0.  1.
      622    2    1    2    0    0  0.16869611522E-02 -0.13324990310E-02  0.11992461716E+02  0.11992676295E+02  0.71708445982E-01 0.  0.
       11    1    1    2    0    0  0.21583259356E-03  0.26680479934E-02  0.67976927340E-02  0.73235861047E-02  0.51109989000E-03 0.  1.
     -623    1    1    2    0    0 -0.19027937457E-02 -0.13355489624E-02  0.74058059983E-03  0.25126700118E+02  0.25126700000E+02 0.  1.
     -611    1    3    3    0    0 -0.71452339227E-02  0.28849190293E-01  0.85220668784E+01  0.85221245714E+01  0.10000000000E-01 0.  1.
      611    1    3    3    0    0  0.88321950749E-02 -0.30181689325E-01  0.34703948375E+01  0.34705517241E+01  0.10000000000E-01 0. -1.
</event>
<event>
 7   0  0.6206631E-02  0.9118800E+02  0.7818608E-02  0.1180000E+00
       11   -1    0    0    0    0  0.00000000000E+00  0.00000000000E+00  0.11999999989E+02  0.12000000000E+02  0.51109989000E-03 0. -1.
     -623   -1    0    0    0    0  0.00000000000E+00  0.00000000000E+00  0.42561509872E-11  0.25126700000E+02  0.25126700000E+02 0. -1.
      622    2    1    2    0    0  0.15283085697E-02 -0.56581917344E-02  0.11827406682E+02  0.11827921158E+02  0.11016243960E+00 0.  0.
       11    1    1    2    0    0 -0.14330772856E-02  0.29186328828E-03  0.17207128897E+00  0.17207826302E+00  0.51109989000E-03 0. -1.
     -623    1    1    2    0    0 -0.95231284019E-04  0.53663284461E-02  0.52201847893E-03  0.25126700579E+02  0.25126700000E+02 0. -1.
     -611    1    3    3    0    0  0.49905063156E-01 -0.17935959903E-01  0.79050517401E+01  0.79052359375E+01  0.10000000000E-01 0. -1.
      611    1    3    3    0    0 -0.48376754586E-01  0.12277768169E-01  0.39223549416E+01  0.39226852208E+01  0.10000000000E-01 0.  1.
</event>
<event>
 7   0  0.6206631E-02  0.9118800E+02  0.7818608E-02  0.1180000E+00
       11   -1    0    0    0    0  0.00000000000E+00  0.00000000000E+00  0.11999999989E+02  0.12000000000E+02  0.51109989000E-03 0.  1.
     -623   -1    0    0    0    0  0.00000000000E+00  0.00000000000E+00  0.42561509872E-11  0.25126700000E+02  0.25126700000E+02 0.  1.
      622    2    1    2    0    0 -0.40383637791E-02  0.16924900477E-01  0.11689057741E+02  0.11689831199E+02  0.13334102952E+00 0.  0.
       11    1    1    2    0    0  0.30569638905E-01 -0.13621878229E-01  0.30834308582E+00  0.31015444247E+00  0.51109989000E-03 0.  1.
     -623    1    1    2    0    0 -0.26531275126E-01 -0.33030222487E-02  0.25991625719E-02  0.25126714359E+02  0.25126700000E+02 0.  1.
     -611    1    3    3    0    0  0.40290318443E-01 -0.20942976347E-01  0.90123229014E+01  0.90124428429E+01  0.10000000000E-01 0.  1.
      611    1    3    3    0    0 -0.44328682222E-01  0.37867876824E-01  0.26767348394E+01  0.26773883559E+01  0.10000000000E-01 0. -1.
</event>
<event>
 7   0  0.6206631E-02  0.9118800E+02  0.7818608E-02  0.1180000E+00
       11   -1    0    0    0    0  0.00000000000E+00  0.00000000000E+00  0.11999999989E+02  0.12000000000E+02  0.51109989000E-03 0. -1.
     -623   -1    0    0    0    0  0.00000000000E+00  0.00000000000E+00  0.42561509872E-11  0.25126700000E+02  0.25126700000E+02 0.  1.
      622    2    1    2    0    0  0.31594674913E-02  0.35718716687E-02  0.11947314528E+02  0.11947961519E+02  0.12424683661E+00 0.  0.
       11    1    1    2    0    0 -0.37805593241E-02  0.26013949861E-02  0.51832433679E-01  0.52037700649E-01  0.51109989000E-03 0. -1.
     -623    1    1    2    0    0  0.62109183273E-03 -0.61732666549E-02  0.85302710072E-03  0.25126700780E+02  0.25126700000E+02 0.  1.
     -611    1    3    3    0    0  0.75099816121E-02  0.39189983318E-01  0.14563937399E+01  0.14569745983E+01  0.10000000000E-01 0.  1.
      611    1    3    3    0    0 -0.43505141207E-02 -0.35618111649E-01  0.10490920788E+02  0.10490986921E+02  0.10000000000E-01 0. -1.
</event>
<event>
 7   0  0.6206631E-02  0.9118800E+02  0.7818608E-02  0.1180000E+00
       11   -1    0    0    0    0  0.00000000000E+00  0.00000000000E+00  0.11999999989E+02  0.12000000000E+02  0.51109989000E-03 0.  1.
     -623   -1    0    0    0    0  0.00000000000E+00  0.00000000000E+00  0.42561509872E-11  0.25126700000E+02  0.25126700000E+02 0. -1.
      622    2    1    2    0    0  0.11665228729E+00  0.80865552649E-01  0.67840665657E+01  0.67862128982E+01  0.94759370723E-01 0.  0.
       11    1    1    2    0    0 -0.95760272787E-01 -0.42882387233E-01  0.52126936073E+01  0.52137494986E+01  0.51109989000E-03 0.  1.
     -623    1    1    2    0    0 -0.20892014507E-01 -0.37983165416E-01  0.32398161710E-02  0.25126737603E+02  0.25126700000E+02 0. -1.
     -611    1    3    3    0    0  0.38904162908E-01 -0.14949605909E-01  0.24648325828E+01  0.24652052015E+01  0.10000000000E-01 0. -1.
      611    1    3    3    0    0  0.77748124387E-01  0.95815158558E-01  0.43192339829E+01  0.43210076967E+01  0.10000000000E-01 0.  1.
</event>
<event>
 7   0  0.6206631E-02  0.9118800E+02  0.7818608E-02  0.1180000E+00
       11   -1    0    0    0    0  0.00000000000E+00  0.00000000000E+00  0.11999999989E+02  0.12000000000E+02  0.51109989000E-03 0. -1.
     -623   -1    0    0    0    0  0.00000000000E+00  0.00000000000E+00  0.42561509872E-11  0.25126700000E+02  0.25126700000E+02 0. -1.
      622    2    1    2    0    0 -0.66136894992E-02 -0.16215652872E-01  0.11662018801E+02  0.11662520116E+02  0.10670631109E+00 0.  0.
       11    1    1    2    0    0  0.34059682465E-02  0.20530420703E-01  0.33683661682E+00  0.33747928299E+00  0.51109989000E-03 0. -1.
     -623    1    1    2    0    0  0.32077212527E-02 -0.43147678310E-02  0.11445708871E-02  0.25126700601E+02  0.25126700000E+02 0. -1.
     -611    1    3    3    0    0 -0.22210349005E-01 -0.26256413534E-01  0.11161996832E+02  0.11162054290E+02  0.10000000000E-01 0. -1.
      611    1    3    3    0    0  0.15596659506E-01  0.10040760662E-01  0.50002196986E+00  0.50046582601E+00  0.10000000000E-01 0.  1.
</event>
<event>
 7   0  0.6206631E-02  0.9118800E+02  0.7818608E-02  0.1180000E+00
       11   -1    0    0    0    0  0.00000000000E+00  0.00000000000E+00  0.11999999989E+02  0.12000000000E+02  0.51109989000E-03 0. -1.
     -623   -1    0    0    0    0  0.00000000000E+00  0.00000000000E+00  0.42561509872E-11  0.25126700000E+02  0.25126700000E+02 0. -1.
      622    2    1    2    0    0  0.11424835936E-01 -0.18066317899E+00  0.97772809625E+01  0.97796252552E+01  0.11435646654E+00 0.  0.
       11    1    1    2    0    0 -0.13410592828E+00  0.12460603358E+00  0.22124501893E+01  0.22200106228E+01  0.51109989000E-03 0. -1.
     -623    1    1    2    0    0  0.12268109234E+00  0.56057145414E-01  0.10268837275E-01  0.25127064122E+02  0.25126700000E+02 0. -1.
     -611    1    3    3    0    0 -0.42355363770E-02 -0.17403018871E+00  0.95171426645E+01  0.95187398821E+01  0.10000000000E-01 0. -1.
      611    1    3    3    0    0  0.15660372313E-01 -0.66329902768E-02  0.26013829799E+00  0.26088537311E+00  0.10000000000E-01 0. -1.
</event>
<event>
 7   0  0.6206631E-02  0.9118800E+02  0.7818608E-02  0.1180000E+00
       11   -1    0    0    0    0  0.00000000000E+00  0.00000000000E+00  0.11999999989E+02  0.12000000000E+02  0.51109989000E-03 0. -1.
     -623   -1    0    0    0    0  0.00000000000E+00  0.00000000000E+00  0.42561509872E-11  0.25126700000E+02  0.25126700000E+02 0. -1.
      622    2    1    2    0    0 -0.68548513518E-02  0.86994608210E-02  0.11926174130E+02  0.11926481089E+02  0.84847608371E-01 0.  0.
       11    1    1    2    0    0  0.11316619940E-01 -0.13369493237E-01  0.71399022927E-01  0.73517963345E-01  0.51109989000E-03 0. -1.
     -623    1    1    2    0    0 -0.44617685884E-02  0.46700324162E-02  0.24268358196E-02  0.25126700947E+02  0.25126700000E+02 0. -1.
     -611    1    3    3    0    0 -0.43979140145E-01 -0.34793307098E-02  0.62710959794E+01  0.62712591282E+01  0.10000000000E-01 0. -1.
      611    1    3    3    0    0  0.37124288793E-01  0.12178791531E-01  0.56550781510E+01  0.56552219612E+01  0.10000000000E-01 0.  1.
</event>
<event>
 7   0  0.6206631E-02  0.9118800E+02  0.7818608E-02  0.1180000E+00
       11   -1    0    0    0    0  0.00000000000E+00  0.00000000000E+00  0.11999999989E+02  0.12000000000E+02  0.51109989000E-03 0.  1.
     -623   -1    0    0    0    0  0.00000000000E+00  0.00000000000E+00  0.42561509872E-11  0.25126700000E+02  0.25126700000E+02 0. -1.
      622    2    1    2    0    0  0.83212848306E-02 -0.78857289822E-03  0.10158186091E+02  0.10158651901E+02  0.96922308472E-01 0.  0.
       11    1    1    2    0    0 -0.12424544339E-01  0.18711747973E-02  0.18413047955E+01  0.18413477352E+01  0.51109989000E-03 0.  1.
     -623    1    1    2    0    0  0.41032595080E-02 -0.10826018991E-02  0.50910293913E-03  0.25126700364E+02  0.25126700000E+02 0. -1.
     -611    1    3    3    0    0 -0.43086117976E-01  0.29188855684E-02  0.41667181062E+01  0.41669538887E+01  0.10000000000E-01 0.  1.
      611    1    3    3    0    0  0.51407402807E-01 -0.37074584666E-02  0.59914679844E+01  0.59916980127E+01  0.10000000000E-01 0. -1.
</event>
<event>
 7   0  0.6206631E-02  0.9118800E+02  0.7818608E-02  0.1180000E+00
       11   -1    0    0    0    0  0.00000000000E+00  0.00000000000E+00  0.11999999989E+02  0.12000000000E+02  0.51109989000E-03 0. -1.
     -623   -1    0    0    0    0  0.00000000000E+00  0.00000000000E+00  0.42561509872E-11  0.25126700000E+02  0.25126700000E+02 0. -1.
      622    2    1    2    0    0 -0.38256268122E-02 -0.20633701313E-01  0.18253381733E+01  0.18279223515E+01  0.94869865148E-01 0.  0.
       11    1    1    2    0    0  0.39464429425E-01  0.10614055229E+00  0.10171276296E+02  0.10171906655E+02  0.51109989000E-03 0. -1.
     -623    1    1    2    0    0 -0.35638802613E-01 -0.85506850974E-01  0.33855198672E-02  0.25126870993E+02  0.25126700000E+02 0. -1.
     -611    1    3    3    0    0 -0.81004036863E-02  0.36112755172E-01  0.60093092720E+00  0.60215257775E+00  0.10000000000E-01 0.  1.
      611    1    3    3    0    0  0.42747768741E-02 -0.56746456485E-01  0.12244072461E+01  0.12257697738E+01  0.10000000000E-01 0. -1.
</event>
<event>
 7   0  0.6206631E-02  0.9118800E+02  0.7818608E-02  0.1180000E+00
       11   -1    0    0    0    0  0.00000000000E+00  0.00000000000E+00  0.11999999989E+02  0.12000000000E+02  0.51109989000E-03 0.  1.
     -623   -1    0    0    0    0  0.00000000000E+00  0.00000000000E+00  0.42561509872E-11  0.25126700000E+02  0.25126700000E+02 0.  1.
      622    2    1    2    0    0 -0.54449365644E-02 -0.27183527187E-02  0.11756182882E+02  0.11756518246E+02  0.88590404397E-01 0.  0.
       11    1    1    2    0    0  0.58238264001E-02  0.16709529769E-02  0.24340579447E+00  0.24348172630E+00  0.51109989000E-03 0.  1.
     -623    1    1    2    0    0 -0.37888983569E-03  0.10473997418E-02  0.41131228251E-03  0.25126700028E+02  0.25126700000E+02 0.  1.
     -611    1    3    3    0    0  0.20898883495E-01 -0.25365723293E-01  0.93565422916E+01  0.93566053587E+01  0.10000000000E-01 0.  1.
      611    1    3    3    0    0 -0.26343820059E-01  0.22647370574E-01  0.23996405907E+01  0.23999128869E+01  0.10000000000E-01 0. -1.
</event>
<event>
 7   0  0.6206631E-02  0.9118800E+02  0.7818608E-02  0.1180000E+00
       11   -1    0    0    0    0  0.00000000000E+00  0.00000000000E+00  0.11999999989E+02  0.12000000000E+02  0.51109989000E-03 0.  1.
     -623   -1    0    0    0    0  0.00000000000E+00  0.00000000000E+00  0.42561509872E-11  0.25126700000E+02  0.25126700000E+02 0. -1.
      622    2    1    2    0    0  0.10596829713E-01  0.28126385257E-01  0.11874817617E+02  0.11875353817E+02  0.10877247738E+00 0.  0.
       11    1    1    2    0    0  0.14683788585E-01 -0.66520891153E-02  0.12357619301E+00  0.12462423777E+00  0.51109989000E-03 0.  1.
     -623    1    1    2    0    0 -0.25280618298E-01 -0.21474296142E-01  0.16061791868E-02  0.25126721945E+02  0.25126700000E+02 0. -1.
     -611    1    3    3    0    0 -0.37456094553E-01 -0.22251823347E-02  0.20563939337E+01  0.20567605405E+01  0.10000000000E-01 0. -1.
      611    1    3    3    0    0  0.48052924266E-01  0.30351567592E-01  0.98184236832E+01  0.98185932763E+01  0.10000000000E-01 0.  1.
</event>
<event>
 7   0  0.6206631E-02  0.9118800E+02  0.7818608E-02  0.1180000E+00
       11   -1    0    0    0    0  0.00000000000E+00  0.00000000000E+00  0.11999999989E+02  0.12000000000E+02  0.51109989000E-03 0. -1.
     -623   -1    0    0    0    0  0.00000000000E+00  0.00000000000E+00  0.42561509872E-11  0.25126700000E+02  0.25126700000E+02 0.  1.
      622    2    1    2    0    0 -0.70366027823E-02 -0.82010164596E-02  0.10795970981E+02  0.10796587226E+02  0.11484569145E+00 0.  0.
       11    1    1    2    0    0  0.47785888299E-02 -0.18075577686E-01  0.12032535643E+01  0.12033989208E+01  0.51109989000E-03 0. -1.
     -623    1    1    2    0    0  0.22580139525E-02  0.26276594145E-01  0.77544349457E-03  0.25126713853E+02  0.25126700000E+02 0.  1.
     -611    1    3    3    0    0 -0.17657527818E-02  0.44635436526E-01  0.23641739385E+01  0.23646170624E+01  0.10000000000E-01 0. -1.
      611    1    3    3    0    0 -0.52708500005E-02 -0.52836452986E-01  0.84317970428E+01  0.84319701638E+01  0.10000000000E-01 0. -1.
</event>
<event>
 7   0  0.6206631E-02  0.9118800E+02  0.7818608E-02  0.1180000E+00
       11   -1    0    0    0    0  0.00000000000E+00  0.00000000000E+00  0.11999999989E+02  0.12000000000E+02  0.51109989000E-03 0. -1.
     -623   -1    0    0    0    0  0.00000000000E+00  0.00000000000E+00  0.42561509872E-11  0.25126700000E+02  0.25126700000E+02 0.  1.
      622    2    1    2    0    0  0.10651875987E-01 -0.39304795134E-02  0.11193810319E+02  0.11194117323E+02  0.82123444891E-01 0.  0.
       11    1    1    2    0    0  0.18289567388E-01 -0.25651200374E-01  0.80523237485E+00  0.80584857826E+00  0.51109989000E-03 0. -1.
     -623    1    1    2    0    0 -0.28941443374E-01  0.29581679887E-01  0.95729514401E-03  0.25126734099E+02  0.25126700000E+02 0.  1.
     -611    1    3    3    0    0 -0.12610647079E-01 -0.36348554516E-01  0.42787799070E+01  0.42789645638E+01  0.10000000000E-01 0.  1.
      611    1    3    3    0    0  0.23262523066E-01  0.32418075003E-01  0.69150304122E+01  0.69151527588E+01  0.10000000000E-01 0. -1.
</event>
<event>
 7   0  0.6206631E-02  0.9118800E+02  0.7818608E-02  0.1180000E+00
       11   -1    0    0    0    0  0.00000000000E+00  0.00000000000E+00  0.11999999989E+02  0.12000000000E+02  0.51109989000E-03 0.  1.
     -623   -1    0    0    0    0  0.00000000000E+00  0.00000000000E+00  0.42561509872E-11  0.25126700000E+02  0.25126700000E+02 0.  1.
      622    2    1    2    0    0  0.15670438845E-01 -0.74301466986E-02  0.11468671971E+02  0.11469367498E+02  0.12511302189E+00 0.  0.
       11    1    1    2    0    0 -0.20824748482E-01  0.29073467416E-02  0.53021453090E+00  0.53063154148E+00  0.51109989000E-03 0.  1.
     -623    1    1    2    0    0  0.51543096379E-02  0.45227999570E-02  0.11134876159E-02  0.25126700960E+02  0.25126700000E+02 0.  1.
     -611    1    3    3    0    0 -0.34798428684E-01 -0.27887205421E-01  0.88125818975E+01  0.88127003992E+01  0.10000000000E-01 0.  1.
      611    1    3    3    0    0  0.50468867528E-01  0.20457058722E-01  0.26560900731E+01  0.26566670989E+01  0.10000000000E-01 0. -1.
</event>
<event>
 7   0  0.6206631E-02  0.9118800E+02  0.7818608E-02  0.1180000E+00
       11   -1    0    0    0    0  0.00000000000E+00  0.00000000000E+00  0.11999999989E+02  0.12000000000E+02  0.51109989000E-03 0.  1.
     -623   -1    0    0    0    0  0.00000000000E+00  0.00000000000E+00  0.42561509872E-11  0.25126700000E+02  0.25126700000E+02 0. -1.
      622    2    1    2    0    0 -0.51940798018E-01 -0.32706012574E-01  0.45152380935E+01  0.45166458271E+01  0.94588351118E-01 0.  0.
       11    1    1    2    0    0  0.57891355982E-01  0.25718985037E-01  0.74830842985E+01  0.74833524409E+01  0.51109989000E-03 0.  1.
     -623    1    1    2    0    0 -0.59505579637E-02  0.69870275366E-02  0.16775971387E-02  0.25126701732E+02  0.25126700000E+02 0. -1.
     -611    1    3    3    0    0 -0.45374410328E-01 -0.48616926397E-01  0.42907174421E+01  0.42912444128E+01  0.10000000000E-01 0. -1.
      611    1    3    3    0    0 -0.65663876901E-02  0.15910913823E-01  0.22452065145E+00  0.22540141427E+00  0.10000000000E-01 0.  1.
</event>
<event>
 7   0  0.6206631E-02  0.9118800E+02  0.7818608E-02  0.1180000E+00
       11   -1    0    0    0    0  0.00000000000E+00  0.00000000000E+00  0.11999999989E+02  0.12000000000E+02  0.51109989000E-03 0. -1.
     -623   -1    0    0    0    0  0.00000000000E+00  0.00000000000E+00  0.42561509872E-11  0.25126700000E+02  0.25126700000E+02 0. -1.
      622    2    1    2    0    0 -0.42052765462E-01  0.27020229181E-01  0.86685268413E+01  0.86688782795E+01  0.59954131356E-01 0.  0.
       11    1    1    2    0    0  0.43221303477E-01 -0.26368967988E-01  0.33307368469E+01  0.33311216741E+01  0.51109989000E-03 0. -1.
     -623    1    1    2    0    0 -0.11685380151E-02 -0.65126119294E-03  0.73630094021E-03  0.25126700046E+02  0.25126700000E+02 0. -1.
     -611    1    3    3    0    0 -0.25055089371E-01  0.13314764575E-01  0.14526817888E+01  0.14529932622E+01  0.10000000000E-01 0.  1.
      611    1    3    3    0    0 -0.16997676091E-01  0.13705464606E-01  0.72158450525E+01  0.72158850173E+01  0.10000000000E-01 0. -1.
</event>
<event>
 7   0  0.6206631E-02  0.9118800E+02  0.7818608E-02  0.1180000E+00
       11   -1    0    0    0    0  0.00000000000E+00  0.00000000000E+00  0.11999999989E+02  0.12000000000E+02  0.51109989000E-03 0. -1.
     -623   -1    0    0    0    0  0.00000000000E+00  0.00000000000E+00  0.42561509872E-11  0.25126700000E+02  0.25126700000E+02 0.  1.
      622    2    1    2    0    0  0.78274492712E-02 -0.26123796343E-01  0.11646810491E+02  0.11647466657E+02  0.12058690367E+00 0.  0.
       11    1    1    2    0    0  0.29392370670E-01  0.17189904734E-01  0.35085532721E+00  0.35250407960E+00  0.51109989000E-03 0. -1.
     -623    1    1    2    0    0 -0.37219819941E-01  0.89338916095E-02  0.23341711855E-02  0.25126729263E+02  0.25126700000E+02 0.  1.
     -611    1    3    3    0    0 -0.13642011033E-01 -0.34170978151E-01  0.11602190825E+01  0.11608454159E+01  0.10000000000E-01 0.  1.
      611    1    3    3    0    0  0.21469460304E-01  0.80471818076E-02  0.10486591408E+02  0.10486621241E+02  0.10000000000E-01 0. -1.
</event>
<event>
 7   0  0.6206631E-02  0.9118800E+02  0.7818608E-02  0.1180000E+00
       11   -1    0    0    0    0  0.00000000000E+00  0.00000000000E+00  0.11999999989E+02  0.12000000000E+02  0.51109989000E-03 0.  1.
     -623   -1    0    0    0    0  0.00000000000E+00  0.00000000000E+00  0.42561509872E-11  0.25126700000E+02  0.25126700000E+02 0. -1.
      622    2    1    2    0    0  0.35473300715E-02 -0.19759379336E-02  0.11909682788E+02  0.11909985901E+02  0.84873751731E-01 0.  0.
       11    1    1    2    0    0 -0.32782241655E-02  0.24228370188E-02  0.89920288902E-01  0.90014090410E-01  0.51109989000E-03 0.  1.
     -623    1    1    2    0    0 -0.26910590594E-03 -0.44689908512E-03  0.39691177374E-03  0.25126700009E+02  0.25126700000E+02 0. -1.
     -611    1    3    3    0    0 -0.11637696183E-01 -0.14737075049E-01  0.11036826717E+02  0.11036847222E+02  0.10000000000E-01 0.  1.
      611    1    3    3    0    0  0.15185026254E-01  0.12761137116E-01  0.87285607166E+00  0.87313867941E+00  0.10000000000E-01 0.  1.
</event>
<event>
 7   0  0.6206631E-02  0.9118800E+02  0.7818608E-02  0.1180000E+00
       11   -1    0    0    0    0  0.00000000000E+00  0.00000000000E+00  0.11999999989E+02  0.12000000000E+02  0.51109989000E-03 0. -1.
     -623   -1    0    0    0    0  0.00000000000E+00  0.00000000000E+00  0.42561509872E-11  0.25126700000E+02  0.25126700000E+02 0. -1.
      622    2    1    2    0    0  0.60175293834E-02  0.93277165772E-02  0.92217292465E+01  0.92222202774E+01  0.94516306820E-01 0.  0.
       11    1    1    2    0    0 -0.48153415014E-02 -0.23126954907E-01  0.27776754008E+01  0.27777758975E+01  0.51109989000E-03 0. -1.
     -623    1    1    2    0    0 -0.12021878820E-02  0.13799238330E-01  0.59534175852E-03  0.25126703825E+02  0.25126700000E+02 0. -1.
     -611    1    3    3    0    0 -0.10201544275E-01  0.39514013209E-01  0.22053470669E+01  0.22057472915E+01  0.10000000000E-01 0.  1.
      611    1    3    3    0    0  0.16219073659E-01 -0.30186296632E-01  0.70163821797E+01  0.70164729859E+01  0.10000000000E-01 0. -1.
</event>
<event>
 7   0  0.6206631E-02  0.9118800E+02  0.7818608E-02  0.1180000E+00
       11   -1    0    0    0    0  0.00000000000E+00  0.00000000000E+00  0.11999999989E+02  0.12000000000E+02  0.51109989000E-03 0. -1.
     -623   -1    0    0    0    0  0.00000000000E+00  0.00000000000E+00  0.42561509872E-11  0.25126700000E+02  0.25126700000E+02 0.  1.
      622    2    1    2    0    0  0.15094234018E-01  0.56509384460E-02  0.11412747549E+02  0.11413001385E+02  0.74392430455E-01 0.  0.
       11    1    1    2    0    0 -0.14586474553E-01  0.49680863047E-02  0.58679384820E+00  0.58699636169E+00  0.51109989000E-03 0. -1.
     -623    1    1    2    0    0 -0.50775946512E-03 -0.10619024751E-01  0.45859207937E-03  0.25126702253E+02  0.25126700000E+02 0.  1.
     -611    1    3    3    0    0  0.15481964181E-01 -0.11733580368E-01  0.10542668564E+02  0.10542691204E+02  0.10000000000E-01 0. -1.
      611    1    3    3    0    0 -0.38773016248E-03  0.17384518814E-01  0.87007898468E+00  0.87031018115E+00  0.10000000000E-01 0.  1.
</event>
<event>
 7   0  0.6206631E-02  0.9118800E+02  0.7818608E-02  0.1180000E+00
       11   -1    0    0    0    0  0.00000000000E+00  0.00000000000E+00  0.11999999989E+02  0.12000000000E+02  0.51109989000E-03 0.  1.
     -623   -1    0    0    0    0  0.00000000000E+00  0.00000000000E+00  0.42561509872E-11  0.25126700000E+02  0.25126700000E+02 0. -1.
      622    2    1    2    0    0  0.41228304242E-02  0.72107178930E-03  0.11753350377E+02  0.11753631896E+02  0.81241202779E-01 0.  0.
       11    1    1    2    0    0  0.13973194749E-01 -0.26732501023E-01  0.24449379271E+00  0.24634803161E+00  0.51109989000E-03 0.  1.
     -623    1    1    2    0    0 -0.18096025173E-01  0.26011429234E-01  0.21558189634E-02  0.25126720072E+02  0.25126700000E+02 0. -1.
     -611    1    3    3    0    0  0.36413765152E-01  0.41030699497E-02  0.33950812265E+01  0.33952937034E+01  0.10000000000E-01 0.  1.
      611    1    3    3    0    0 -0.32290934728E-01 -0.33819981604E-02  0.83582691509E+01  0.83583381926E+01  0.10000000000E-01 0. -1.
</event>
<event>
 7   0  0.6206631E-02  0.9118800E+02  0.7818608E-02  0.1180000E+00
       11   -1    0    0    0    0  0.00000000000E+00  0.00000000000E+00  0.11999999989E+02  0.12000000000E+02  0.51109989000E-03 0. -1.
     -623   -1    0    0    0    0  0.00000000000E+00  0.00000000000E+00  0.42561509872E-11  0.25126700000E+02  0.25126700000E+02 0.  1.
      622    2    1    2    0    0 -0.13311192568E-01 -0.31890679016E-01  0.10074050829E+02  0.10074305383E+02  0.62726626281E-01 0.  0.
       11    1    1    2    0    0 -0.66477954153E-02  0.43011886539E-01  0.19251922578E+01  0.19256842177E+01  0.51109989000E-03 0. -1.
     -623    1    1    2    0    0  0.19958987984E-01 -0.11121207522E-01  0.75690203184E-03  0.25126710400E+02  0.25126700000E+02 0.  1.
     -611    1    3    3    0    0 -0.22500518165E-01  0.51260814268E-02  0.62649691502E+01  0.62650196331E+01  0.10000000000E-01 0. -1.
      611    1    3    3    0    0  0.91893255973E-02 -0.37016760443E-01  0.38090816790E+01  0.38092857495E+01  0.10000000000E-01 0. -1.
</event>
<event>
 7   0  0.6206631E-02  0.9118800E+02  0.7818608E-02  0.1180000E+00
       11   -1    0    0    0    0  0.00000000000E+00  0.00000000000E+00  0.11999999989E+02  0.12000000000E+02  0.51109989000E-03 0. -1.
     -623   -1    0    0    0    0  0.00000000000E+00  0.00000000000E+00  0.42561509872E-11  0.25126700000E+02  0.25126700000E+02 0. -1.
      622    2    1    2    0    0  0.10616893490E-02  0.15653872942E-02  0.11937507732E+02  0.11937537068E+02  0.26397140783E-01 0.  0.
       11    1    1    2    0    0 -0.84496815609E-03 -0.10685561195E-02  0.62445977929E-01  0.62462926333E-01  0.51109989000E-03 0.  1.
     -623    1    1    2    0    0 -0.21672119297E-03 -0.49683117474E-03  0.46278924680E-04  0.25126700006E+02  0.25126700000E+02 0. -1.
     -611    1    3    3    0    0  0.46973664968E-02 -0.32432035942E-02  0.88122811433E+01  0.88122886660E+01  0.10000000000E-01 0. -1.
      611    1    3    3    0    0 -0.36356771478E-02  0.48085908884E-02  0.31252265887E+01  0.31252484016E+01  0.10000000000E-01 0. -1.
</event>
<event>
 7   0  0.6206631E-02  0.9118800E+02  0.7818608E-02  0.1180000E+00
       11   -1    0    0    0    0  0.00000000000E+00  0.00000000000E+00  0.11999999989E+02  0.12000000000E+02  0.51109989000E-03 0.  1.
     -623   -1    0    0    0    0  0.00000000000E+00  0.00000000000E+00  0.42561509872E-11  0.25126700000E+02  0.25126700000E+02 0.  1.
      622    2    1    2    0    0  0.39437361626E-03  0.18860853273E-02  0.11996597046E+02  0.11997120828E+02  0.11208821991E+00 0.  0.
       11    1    1    2    0    0  0.14343080545E-02 -0.17359157814E-02  0.17196082454E-02  0.28790482581E-02  0.51109989000E-03 0.  1.
     -623    1    1    2    0    0 -0.18286816708E-02 -0.15016954582E-03  0.16833346938E-02  0.25126700123E+02  0.25126700000E+02 0.  1.
     -611    1    3    3    0    0 -0.46561239129E-01 -0.28293476799E-01  0.59814192118E+01  0.59816757065E+01  0.10000000000E-01 0. -1.
      611    1    3    3    0    0  0.46955612745E-01  0.30179562126E-01  0.60151778344E+01  0.60154451219E+01  0.10000000000E-01 0.  1.
</event>
<event>
 7   0  0.6206631E-02  0.9118800E+02  0.7818608E-02  0.1180000E+00
       11   -1    0    0    0    0  0.00000000000E+00  0.00000000000E+00  0.11999999989E+02  0.12000000000E+02  0.51109989000E-03 0.  1.
     -623   -1    0    0    0    0  0.00000000000E+00  0.00000000000E+00  0.42561509872E-11  0.25126700000E+02  0.25126700000E+02 0. -1.
      622    2    1    2    0    0  0.30860719228E-01 -0.78773918930E-01  0.11229492388E+02  0.11230329625E+02  0.10791887750E+00 0.  0.
       11    1    1    2    0    0 -0.45809521682E-01  0.74648341433E-01  0.76466523766E+00  0.76966491025E+00  0.51109989000E-03 0.  1.
     -623    1    1    2    0    0  0.14948802454E-01  0.41255774979E-02  0.58423636128E-02  0.25126705465E+02  0.25126700000E+02 0. -1.
     -611    1    3    3    0    0 -0.89369854968E-02 -0.59894631119E-01  0.26203534551E+01  0.26210721978E+01  0.10000000000E-01 0.  1.
      611    1    3    3    0    0  0.39797704725E-01 -0.18879287811E-01  0.86091389327E+01  0.86092574272E+01  0.10000000000E-01 0.  1.
</event>
<event>
 7   0  0.6206631E-02  0.9118800E+02  0.7818608E-02  0.1180000E+00
       11   -1    0    0    0    0  0.00000000000E+00  0.00000000000E+00  0.11999999989E+02  0.12000000000E+02  0.51109989000E-03 0.  1.
     -623   -1    0    0    0    0  0.00000000000E+00  0.00000000000E+00  0.42561509872E-11  0.25126700000E+02  0.25126700000E+02 0.  1.
      622    2    1    2    0    0 -0.59362378110E-02  0.27587271544E-02  0.11900265183E+02  0.11900777206E+02  0.11019902963E+00 0.  0.
       11    1    1    2    0    0 -0.10202439734E-01  0.45906566271E-02  0.98582406128E-01  0.99216510349E-01  0.51109989000E-03 0.  1.
     -623    1    1    2    0    0  0.16138677545E-01 -0.73493837815E-02  0.11524002292E-02  0.25126706284E+02  0.25126700000E+02 0.  1.
     -611    1    3    3    0    0 -0.19351997672E-01  0.60015518242E-02  0.11604098529E+02  0.11604120526E+02  0.10000000000E-01 0.  1.
      611    1    3    3    0    0  0.13415759861E-01 -0.32428246698E-02  0.29616665370E+00  0.29665667915E+00  0.10000000000E-01 0. -1.
</event>
<event>
 7   0  0.6206631E-02  0.9118800E+02  0.7818608E-02  0.1180000E+00
       11   -1    0    0    0    0  0.00000000000E+00  0.00000000000E+00  0.11999999989E+02  0.12000000000E+02  0.51109989000E-03 0.  1.
     -623   -1    0    0    0    0  0.00000000000E+00  0.00000000000E+00  0.42561509872E-11  0.25126700000E+02  0.25126700000E+02 0.  1.
      622    2    1    2    0    0 -0.30616519122E-01 -0.50269638184E-02  0.11173544982E+02  0.11174077001E+02  0.10453094343E+00 0.  0.
       11    1    1    2    0    0  0.21719692155E-01  0.13706757649E-01  0.82552032789E+00  0.82591990727E+00  0.51109989000E-03 0.  1.
     -623    1    1    2    0    0  0.88968269670E-02 -0.86797938307E-02  0.93467915590E-03  0.25126703092E+02  0.25126700000E+02 0.  1.
     -611    1    3    3    0    0 -0.36302307458E-01  0.22113962330E-01  0.10182675571E+02  0.10182769205E+02  0.10000000000E-01 0.  1.
      611    1    3    3    0    0  0.56857883357E-02 -0.27140926148E-01  0.99086941069E+00  0.99130779635E+00  0.10000000000E-01 0. -1.
</event>
<event>
 7   0  0.6206631E-02  0.9118800E+02  0.7818608E-02  0.1180000E+00
       11   -1    0    0    0    0  0.00000000000E+00  0.00000000000E+00  0.11999999989E+02  0.12000000000E+02  0.51109989000E-03 0.  1.
     -623   -1    0    0    0    0  0.00000000000E+00  0.00000000000E+00  0.42561509872E-11  0.25126700000E+02  0.25126700000E+02 0. -1.
      622    2    1    2    0    0 -0.11054738237E+00  0.89411085278E-01  0.56217022937E+01  0.56242579593E+01  0.92335516148E-01 0.  0.
       11    1    1    2    0    0  0.87001538084E-01 -0.95255242156E-01  0.63744247058E+01  0.63757300304E+01  0.51109989000E-03 0.  1.
     -623    1    1    2    0    0  0.23545844287E-01  0.58441568783E-02  0.38729895937E-02  0.25126712010E+02  0.25126700000E+02 0. -1.
     -611    1    3    3    0    0 -0.34169005428E-01 -0.11336237363E-01  0.77923052196E+00  0.78012578317E+00  0.10000000000E-01 0. -1.
      611    1    3    3    0    0 -0.76378376944E-01  0.10074732264E+00  0.48424717718E+01  0.48441321761E+01  0.10000000000E-01 0.  1.
</event>
<event>
 7   0  0.6206631E-02  0.9118800E+02  0.7818608E-02  0.1180000E+00
       11   -1    0    0    0    0  0.00000000000E+00  0.00000000000E+00  0.11999999989E+02  0.12000000000E+02  0.51109989000E-03 0.  1.
     -623   -1    0    0    0    0  0.00000000000E+00  0.00000000000E+00  0.42561509872E-11  0.25126700000E+02  0.25126700000E+02 0.  1.
      622    2    1    2    0    0 -0.46717847006E-01 -0.10153959002E-01  0.11338811217E+02  0.11339659477E+02  0.13019823879E+00 0.  0.
       11    1    1    2    0    0  0.45701560025E-01  0.80355176826E-02  0.65870770130E+00  0.66034029039E+00  0.51109989000E-03 0.  1.
     -623    1    1    2    0    0  0.10162869814E-02  0.21184413198E-02  0.24810706419E-02  0.25126700232E+02  0.25126700000E+02 0.  1.
     -611    1    3    3    0    0 -0.88761758248E-01 -0.12458001533E-01  0.89662663942E+01  0.89667199635E+01  0.10000000000E-01 0.  1.
      611    1    3    3    0    0  0.42043911241E-01  0.23040425310E-02  0.23725448230E+01  0.23729395138E+01  0.10000000000E-01 0. -1.
</event>
<event>
 7   0  0.6206631E-02  0.9118800E+02  0.7818608E-02  0.1180000E+00
       11   -1    0    0    0    0  0.00000000000E+00  0.00000000000E+00  0.11999999989E+02  0.12000000000E+02  0.51109989000E-03 0.  1.
     -623   -1    0    0    0    0  0.00000000000E+00  0.00000000000E+00  0.42561509872E-11  0.25126700000E+02  0.25126700000E+02 0.  1.
      622    2    1    2    0    0 -0.11976094111E-01 -0.16554690942E-01  0.10978133718E+02  0.10978527261E+02  0.90683046513E-01 0.  0.
       11    1    1    2    0    0  0.24793114326E-01 -0.10280155163E-01  0.10211023153E+01  0.10214551286E+01  0.51109989000E-03 0.  1.
     -623    1    1    2    0    0 -0.12817020215E-01  0.26834846105E-01  0.76395591257E-03  0.25126717610E+02  0.25126700000E+02 0.  1.
     -611    1    3    3    0    0  0.64362934734E-03  0.36119270301E-01  0.49494530679E+01  0.49495950023E+01  0.10000000000E-01 0. -1.
      611    1    3    3    0    0 -0.12619723458E-01 -0.52673961243E-01  0.60286806500E+01  0.60289322590E+01  0.10000000000E-01 0.  1.
</event>
<event>
 7   0  0.6206631E-02  0.9118800E+02  0.7818608E-02  0.1180000E+00
       11   -1    0    0    0    0  0.00000000000E+00  0.00000000000E+00  0.11999999989E+02  0.12000000000E+02  0.51109989000E-03 0.  1.
     -623   -1    0    0    0    0  0.00000000000E+00  0.00000000000E+00  0.42561509872E-11  0.25126700000E+02  0.25126700000E+02 0.  1.
      622    2    1    2    0    0 -0.14732994517E-02 -0.13284875536E-02  0.11904716209E+02  0.11905104337E+02  0.96110998003E-01 0.  0.
       11    1    1    2    0    0  0.73918502570E-03  0.14893332263E-02  0.94879704523E-01  0.94895648275E-01  0.51109989000E-03 0.  1.
     -623    1    1    2    0    0  0.73411442600E-03 -0.16084567270E-03  0.40407541839E-03  0.25126700014E+02  0.25126700000E+02 0.  1.
     -611    1    3    3    0    0 -0.25399949205E-01  0.33604221205E-01  0.33822514655E+01  0.33825285479E+01  0.10000000000E-01 0. -1.
      611    1    3    3    0    0  0.23926649753E-01 -0.34932708758E-01  0.85224647436E+01  0.85225757894E+01  0.10000000000E-01 0.  1.
</event>
<event>
 7   0  0.6206631E-02  0.9118800E+02  0.7818608E-02  0.1180000E+00
       11   -1    0    0    0    0  0.00000000000E+00  0.00000000000E+00  0.11999999989E+02  0.12000000000E+02  0.51109989000E-03 0. -1.
     -623   -1    0    0    0    0  0.00000000000E+00  0.00000000000E+00  0.42561509872E-11  0.25126700000E+02  0.25126700000E+02 0. -1.
      622    2    1    2    0    0  0.12959535650E-04 -0.10064471203E-02  0.11994562767E+02  0.11995215666E+02  0.12514749330E+00 0.  0.
       11    1    1    2    0    0  0.12372414574E-02  0.18717546264E-02  0.41944803101E-02  0.47842575217E-02  0.51109989000E-03 0. -1.
     -623    1    1    2    0    0 -0.12502009931E-02 -0.86530750606E-03  0.12427423092E-02  0.25126700077E+02  0.25126700000E+02 0. -1.
     -611    1    3    3    0    0 -0.31747647874E-01  0.26425595489E-01  0.16028436314E+01  0.16034069764E+01  0.10000000000E-01 0.  1.
      611    1    3    3    0    0  0.31760607410E-01 -0.27432042609E-01  0.10391719135E+02  0.10391808689E+02  0.10000000000E-01 0. -1.
</event>
<event>
 7   0  0.6206631E-02  0.9118800E+02  0.7818608E-02  0.1180000E+00
       11   -1    0    0    0    0  0.00000000000E+00  0.00000000000E+00  0.11999999989E+02  0.12000000000E+02  0.51109989000E-03 0.  1.
     -623   -1    0    0    0    0  0.00000000000E+00  0.00000000000E+00  0.42561509872E-11  0.25126700000E+02  0.25126700000E+02 0.  1.
      622    2    1    2    0    0 -0.60343100731E-02  0.34138199673E-03  0.11915677793E+02  0.11915947692E+02  0.79972479478E-01 0.  0.
       11    1    1    2    0    0  0.40389238717E-02 -0.13097693733E-02  0.83943337910E-01  0.84052207612E-01  0.51109989000E-03 0.  1.
     -623    1    1    2    0    0  0.19953862013E-02  0.96838737659E-03  0.37885836024E-03  0.25126700101E+02  0.25126700000E+02 0.  1.
     -611    1    3    3    0    0  0.43000240501E-02  0.15166291272E-01  0.11076639955E+02  0.11076655686E+02  0.10000000000E-01 0.  1.
      611    1    3    3    0    0 -0.10334334123E-01 -0.14824909275E-01  0.83903783835E+00  0.83929200555E+00  0.10000000000E-01 0. -1.
</event>
<event>
 7   0  0.6206631E-02  0.9118800E+02  0.7818608E-02  0.1180000E+00
       11   -1    0    0    0    0  0.00000000000E+00  0.00000000000E+00  0.11999999989E+02  0.12000000000E+02  0.51109989000E-03 0. -1.
     -623   -1    0    0    0    0  0.00000000000E+00  0.00000000000E+00  0.42561509872E-11  0.25126700000E+02  0.25126700000E+02 0. -1.
      622    2    1    2    0    0 -0.50788521394E-02 -0.75959130201E-02  0.11895985891E+02  0.11896562600E+02  0.11678140017E+00 0.  0.
       11    1    1    2    0    0  0.83759980159E-02  0.66138722620E-02  0.10288381696E+00  0.10343713871E+00  0.51109989000E-03 0. -1.
     -623    1    1    2    0    0 -0.32971458765E-02  0.98204075812E-03  0.11302812807E-02  0.25126700261E+02  0.25126700000E+02 0. -1.
     -611    1    3    3    0    0  0.26742047880E-01 -0.20627396515E-01  0.10659651875E+02  0.10659710067E+02  0.10000000000E-01 0. -1.
      611    1    3    3    0    0 -0.31820900020E-01  0.13031483495E-01  0.12363340159E+01  0.12368525329E+01  0.10000000000E-01 0.  1.
</event>
<event>
 7   0  0.6206631E-02  0.9118800E+02  0.7818608E-02  0.1180000E+00
       11   -1    0    0    0    0  0.00000000000E+00  0.00000000000E+00  0.11999999989E+02  0.12000000000E+02  0.51109989000E-03 0. -1.
     -623   -1    0    0    0    0  0.00000000000E+00  0.00000000000E+00  0.42561509872E-11  0.25126700000E+02  0.25126700000E+02 0.  1.
      622    2    1    2    0    0 -0.53733016696E-02  0.35834398675E-02  0.11375474093E+02  0.11375919954E+02  0.10050993868E+00 0.  0.
       11    1    1    2    0    0  0.63711863647E-02 -0.66083761797E-04  0.62404704010E+00  0.62407977524E+00  0.51109989000E-03 0. -1.
     -623    1    1    2    0    0 -0.99788469510E-03 -0.35173561057E-02  0.47885590883E-03  0.25126700271E+02  0.25126700000E+02 0.  1.
     -611    1    3    3    0    0 -0.43313731866E-02  0.46323242779E-01  0.82528167571E+01  0.82529539578E+01  0.10000000000E-01 0. -1.
      611    1    3    3    0    0 -0.10419284830E-02 -0.42739802911E-01  0.31226573360E+01  0.31229659964E+01  0.10000000000E-01 0.  1.
</event>
<event>
 7   0  0.6206631E-02  0.9118800E+02  0.7818608E-02  0.1180000E+00
       11   -1    0    0    0    0  0.00000000000E+00  0.00000000000E+00  0.11999999989E+02  0.12000000000E+02  0.51109989000E-03 0.  1.
     -623   -1    0    0    0    0  0.00000000000E+00  0.00000000000E+00  0.42561509872E-11  0.25126700000E+02  0.25126700000E+02 0.  1.
      622    2    1    2    0    0  0.54379863000E-02 -0.77114094299E-02  0.11156749648E+02  0.11157122877E+02  0.90769829269E-01 0.  0.
       11    1    1    2    0    0 -0.52856277030E-03 -0.65919246470E-02  0.84284647054E+00  0.84287256864E+00  0.51109989000E-03 0.  1.
     -623    1    1    2    0    0 -0.49094235297E-02  0.14303334077E-01  0.40387084044E-03  0.25126704554E+02  0.25126700000E+02 0.  1.
     -611    1    3    3    0    0 -0.21388745765E-01 -0.41755216943E-02  0.99485416327E+01  0.99485705270E+01  0.10000000000E-01 0.  1.
      611    1    3    3    0    0  0.26826732065E-01 -0.35358877356E-02  0.12082080151E+01  0.12085523504E+01  0.10000000000E-01 0. -1.
</event>
<event>
 7   0  0.6206631E-02  0.9118800E+02  0.7818608E-02  0.1180000E+00
       11   -1    0    0    0    0  0.00000000000E+00  0.00000000000E+00  0.11999999989E+02  0.12000000000E+02  0.51109989000E-03 0. -1.
     -623   -1    0    0    0    0  0.00000000000E+00  0.00000000000E+00  0.42561509872E-11  0.25126700000E+02  0.25126700000E+02 0.  1.
      622    2    1    2    0    0  0.47261995129E-01 -0.31043205161E-02  0.11675930957E+02  0.11676554035E+02  0.11093731619E+00 0.  0.
       11    1    1    2    0    0 -0.56873529796E-01  0.14726908767E-01  0.31805999141E+00  0.32344072037E+00  0.51109989000E-03 0. -1.
     -623    1    1    2    0    0  0.96115346675E-02 -0.11622588251E-01  0.60090410537E-02  0.25126705245E+02  0.25126700000E+02 0.  1.
     -611    1    3    3    0    0  0.33255564681E-01 -0.21118539796E-01  0.11110642542E+02  0.11110716882E+02  0.10000000000E-01 0. -1.
      611    1    3    3    0    0  0.14006430448E-01  0.18014219280E-01  0.56528841460E+00  0.56583715314E+00  0.10000000000E-01 0.  1.
</event>
<event>
 7   0  0.6206631E-02  0.9118800E+02  0.7818608E-02  0.1180000E+00
       11   -1    0    0    0    0  0.00000000000E+00  0.00000000000E+00  0.11999999989E+02  0.12000000000E+02  0.51109989000E-03 0.  1.
     -623   -1    0    0    0    0  0.00000000000E+00  0.00000000000E+00  0.42561509872E-11  0.25126700000E+02  0.25126700000E+02 0. -1.
      622    2    1    2    0    0 -0.21860598633E-01  0.58258239973E-01  0.11515458990E+02  0.11516383932E+02  0.13202724831E+00 0.  0.
       11    1    1    2    0    0  0.36324342541E-01 -0.22458233719E-01  0.48169654464E+00  0.48358624098E+00  0.51109989000E-03 0.  1.
     -623    1    1    2    0    0 -0.14463743907E-01 -0.35800006254E-01  0.28444541946E-02  0.25126729827E+02  0.25126700000E+02 0. -1.
     -611    1    3    3    0    0 -0.69823390742E-01  0.35499113179E-02  0.47244653170E+01  0.47249931682E+01  0.10000000000E-01 0. -1.
      611    1    3    3    0    0  0.47962792108E-01  0.54708328655E-01  0.67909936733E+01  0.67913907634E+01  0.10000000000E-01 0.  1.
</event>
<event>
 7   0  0.6206631E-02  0.9118800E+02  0.7818608E-02  0.1180000E+00
       11   -1    0    0    0    0  0.00000000000E+00  0.00000000000E+00  0.11999999989E+02  0.12000000000E+02  0.51109989000E-03 0. -1.
     -623   -1    0    0    0    0  0.00000000000E+00  0.00000000000E+00  0.42561509872E-11  0.25126700000E+02  0.25126700000E+02 0. -1.
      622    2    1    2    0    0  0.81178549568E-03  0.90880077996E-03  0.11985176129E+02  0.11985257208E+02  0.44068162683E-01 0.  0.
       11    1    1    2    0    0  0.65571858608E-03  0.11221947973E-02  0.14676365949E-01  0.14742666943E-01  0.51109989000E-03 0. -1.
     -623    1    1    2    0    0 -0.14675040818E-02 -0.20309955772E-02  0.14749402986E-03  0.25126700125E+02  0.25126700000E+02 0. -1.
     -611    1    3    3    0    0  0.77501341792E-02  0.12507295233E-01  0.98090362778E+01  0.98090524107E+01  0.10000000000E-01 0. -1.
      611    1    3    3    0    0 -0.69383486835E-02 -0.11598494453E-01  0.21761398513E+01  0.21762047970E+01  0.10000000000E-01 0.  1.
</event>
<event>
 7   0  0.6206631E-02  0.9118800E+02  0.7818608E-02  0.1180000E+00
       11   -1    0    0    0    0  0.00000000000E+00  0.00000000000E+00  0.11999999989E+02  0.12000000000E+02  0.51109989000E-03 0. -1.
     -623   -1    0    0    0    0  0.00000000000E+00  0.00000000000E+00  0.42561509872E-11  0.25126700000E+02  0.25126700000E+02 0.  1.
      622    2    1    2    0    0 -0.59173377572E-03 -0.23418863887E-02  0.11982901358E+02  0.11983046816E+02  0.58993351166E-01 0.  0.
       11    1    1    2    0    0 -0.59391027903E-03  0.21155403777E-02  0.16802378781E-01  0.16953152992E-01  0.51109989000E-03 0. -1.
     -623    1    1    2    0    0  0.11856440547E-02  0.22634601099E-03  0.29625253616E-03  0.25126700031E+02  0.25126700000E+02 0.  1.
     -611    1    3    3    0    0 -0.12609166585E-01 -0.37159163799E-02  0.11057861384E+02  0.11057873719E+02  0.10000000000E-01 0. -1.
      611    1    3    3    0    0  0.12017432809E-01  0.13740299912E-02  0.92503997388E+00  0.92517309728E+00  0.10000000000E-01 0. -1.
</event>
<event>
 7   0  0.6206631E-02  0.9118800E+02  0.7818608E-02  0.1180000E+00
       11   -1    0    0    0    0  0.00000000000E+00  0.00000000000E+00  0.11999999989E+02  0.12000000000E+02  0.51109989000E-03 0.  1.
     -623   -1    0    0    0    0  0.00000000000E+00  0.00000000000E+00  0.42561509872E-11  0.25126700000E+02  0.25126700000E+02 0.  1.
      622    2    1    2    0    0  0.22820025401E-02 -0.29432697764E-02  0.11978540618E+02  0.11979078927E+02  0.11350209600E+00 0.  0.
       11    1    1    2    0    0  0.27775810981E-02  0.10319062393E-03  0.20728627577E-01  0.20920392668E-01  0.51109989000E-03 0.  1.
     -623    1    1    2    0    0 -0.50595836382E-02  0.28400791525E-02  0.73074349807E-03  0.25126700681E+02  0.25126700000E+02 0.  1.
     -611    1    3    3    0    0 -0.24194735043E-01 -0.50228819791E-01  0.71346546148E+01  0.71348794519E+01  0.10000000000E-01 0.  1.
      611    1    3    3    0    0  0.26476737583E-01  0.47285550014E-01  0.48438860032E+01  0.48441994749E+01  0.10000000000E-01 0. -1.
</event>
<event>
 7   0  0.6206631E-02  0.9118800E+02  0.7818608E-02  0.1180000E+00
       11   -1    0    0    0    0  0.00000000000E+00  0.00000000000E+00  0.11999999989E+02  0.12000000000E+02  0.51109989000E-03 0.  1.
     -623   -1    0    0    0    0  0.00000000000E+00  0.00000000000E+00  0.42561509872E-11  0.25126700000E+02  0.25126700000E+02 0.  1.
      622    2    1    2    0    0 -0.22714939566E+00 -0.47114783792E-01  0.10902531299E+02  0.10905527994E+02  0.10740320721E+00 0.  0.
       11    1    1    2    0    0  0.24349942343E+00  0.20117390770E-01  0.10668119352E+01  0.10944334813E+01  0.51109989000E-03 0.  1.
     -623    1    1    2    0    0 -0.16350027766E-01  0.26997393022E-01  0.30656755187E-01  0.25126738525E+02  0.25126700000E+02 0.  1.
     -611    1    3    3    0    0 -0.17959560504E+00 -0.57030884503E-01  0.98727194796E+01  0.98745226227E+01  0.10000000000E-01 0.  1.
      611    1    3    3    0    0 -0.47553790622E-01  0.99161007107E-02  0.10298118191E+01  0.10310053709E+01  0.10000000000E-01 0.  1.
</event>
<event>
 7   0  0.6206631E-02  0.9118800E+02  0.7818608E-02  0.1180000E+00
       11   -1    0    0    0    0  0.00000000000E+00  0.00000000000E+00  0.11999999989E+02  0.12000000000E+02  0.51109989000E-03 0. -1.
     -623   -1    0    0    0    0  0.00000000000E+00  0.00000000000E+00  0.42561509872E-11  0.25126700000E+02  0.25126700000E+02 0. -1.
      622    2    1    2    0    0  0.29048234161E-02  0.39765958526E-02  0.87243508030E+01  0.87250135572E+01  0.10742619936E+00 0.  0.
       11    1    1    2    0    0 -0.21011427283E-01 -0.12328792578E-01  0.32748878700E+01  0.32749785192E+01  0.51109989000E-03 0. -1.
     -623    1    1    2    0    0  0.18106603867E-01  0.83521967257E-02  0.76131616832E-03  0.25126707924E+02  0.25126700000E+02 0. -1.
     -611    1    3    3    0    0 -0.27283149077E-02  0.54487585472E-01  0.41985246635E+01  0.41988910072E+01  0.10000000000E-01 0.  1.
      611    1    3    3    0    0  0.56331383238E-02 -0.50510989619E-01  0.45258261395E+01  0.45261225500E+01  0.10000000000E-01 0. -1.
</event>
<event>
 7   0  0.6206631E-02  0.9118800E+02  0.7818608E-02  0.1180000E+00
       11   -1    0    0    0    0  0.00000000000E+00  0.00000000000E+00  0.11999999989E+02  0.12000000000E+02  0.51109989000E-03 0.  1.
     -623   -1    0    0    0    0  0.00000000000E+00  0.00000000000E+00  0.42561509872E-11  0.25126700000E+02  0.25126700000E+02 0.  1.
      622    2    1    2    0    0  0.61165171012E-01  0.91427127587E-02  0.84273238204E+01  0.84280970687E+01  0.95961756974E-01 0.  0.
       11    1    1    2    0    0 -0.65429820788E-01 -0.13878896631E-01  0.35712757596E+01  0.35719020839E+01  0.51109989000E-03 0.  1.
     -623    1    1    2    0    0  0.42646497762E-02  0.47361838723E-02  0.14004091388E-02  0.25126700847E+02  0.25126700000E+02 0.  1.
     -611    1    3    3    0    0  0.22931246919E-01  0.35526414429E-01  0.66386225759E+01  0.66387647701E+01  0.10000000000E-01 0. -1.
      611    1    3    3    0    0  0.38233924093E-01 -0.26383701671E-01  0.17887012445E+01  0.17893322986E+01  0.10000000000E-01 0.  1.
</event>
<event>
 7   0  0.6206631E-02  0.9118800E+02  0.7818608E-02  0.1180000E+00
       11   -1    0    0    0    0  0.00000000000E+00  0.00000000000E+00  0.11999999989E+02  0.12000000000E+02  0.51109989000E-03 0. -1.
     -623   -1    0    0    0    0  0.00000000000E+00  0.00000000000E+00  0.42561509872E-11  0.25126700000E+02  0.25126700000E+02 0. -1.
      622    2    1    2    0    0  0.73597222842E-02 -0.84516188252E-01  0.98784399786E+01  0.98793931598E+01  0.10786864464E+00 0.  0.
       11    1    1    2    0    0  0.67136258928E-02  0.32622636009E-01  0.21202876401E+01  0.21205492796E+01  0.51109989000E-03 0. -1.
     -623    1    1    2    0    0 -0.14073348177E-01  0.51893552243E-01  0.12723704451E-02  0.25126757561E+02  0.25126700000E+02 0. -1.
     -611    1    3    3    0    0  0.28688407187E-01 -0.20170872016E-01  0.96355427438E+00  0.96424412286E+00  0.10000000000E-01 0.  1.
      611    1    3    3    0    0 -0.21328684903E-01 -0.64345316235E-01  0.89148857042E+01  0.89151490369E+01  0.10000000000E-01 0. -1.
</event>
<event>
 7   0  0.6206631E-02  0.9118800E+02  0.7818608E-02  0.1180000E+00
       11   -1    0    0    0    0  0.00000000000E+00  0.00000000000E+00  0.11999999989E+02  0.12000000000E+02  0.51109989000E-03 0.  1.
     -623   -1    0    0    0    0  0.00000000000E+00  0.00000000000E+00  0.42561509872E-11  0.25126700000E+02  0.25126700000E+02 0. -1.
      622    2    1    2    0    0  0.85782342610E-01 -0.38704056213E-01  0.50688833554E+01  0.50705718048E+01  0.90902928061E-01 0.  0.
       11    1    1    2    0    0 -0.87634079176E-01  0.43217004891E-01  0.69287386506E+01  0.69294276092E+01  0.51109989000E-03 0.  1.
     -623    1    1    2    0    0  0.18517365663E-02 -0.45129486776E-02  0.23779831026E-02  0.25126700586E+02  0.25126700000E+02 0. -1.
     -611    1    3    3    0    0 -0.10026494402E-01 -0.30954716600E-01  0.12123846217E+01  0.12128623978E+01  0.10000000000E-01 0.  1.
      611    1    3    3    0    0  0.95808837012E-01 -0.77493396136E-02  0.38564987337E+01  0.38577094070E+01  0.10000000000E-01 0. -1.
</event>
<event>
 7   0  0.6206631E-02  0.9118800E+02  0.7818608E-02  0.1180000E+00
       11   -1    0    0    0    0  0.00000000000E+00  0.00000000000E+00  0.11999999989E+02  0.12000000000E+02  0.51109989000E-03 0.  1.
     -623   -1    0    0    0    0  0.00000000000E+00  0.00000000000E+00  0.42561509872E-11  0.25126700000E+02  0.25126700000E+02 0. -1.
      622    2    1    2    0    0 -0.76689589841E-03 -0.13606933714E-02  0.11997225863E+02  0.11997604240E+02  0.95271562221E-01 0.  0.
       11    1    1    2    0    0  0.91917675609E-03 -0.44072148294E-04  0.21520655431E-02  0.23957123117E-02  0.51109989000E-03 0.  1.
     -623    1    1    2    0    0 -0.15228085769E-03  0.14047655197E-02  0.62206108341E-03  0.25126700047E+02  0.25126700000E+02 0. -1.
     -611    1    3    3    0    0 -0.18767333165E-01 -0.36384752203E-01  0.31102285413E+01  0.31105140479E+01  0.10000000000E-01 0.  1.
      611    1    3    3    0    0  0.18000437267E-01  0.35024058831E-01  0.88869973212E+01  0.88870901924E+01  0.10000000000E-01 0.  1.
</event>
<event>
 7   0  0.6206631E-02  0.9118800E+02  0.7818608E-02  0.1180000E+00
       11   -1    0    0    0    0  0.00000000000E+00  0.00000000000E+00  0.11999999989E+02  0.12000000000E+02  0.51109989000E-03 0. -1.
     -623   -1    0    0    0    0  0.00000000000E+00  0.00000000000E+00  0.42561509872E-11  0.25126700000E+02  0.25126700000E+02 0.  1.
      622    2    1    2    0    0 -0.25886424580E-02 -0.33715318824E-02  0.11974526911E+02  0.11974907681E+02  0.95400026381E-01 0.  0.
       11    1    1    2    0    0  0.52850233622E-02 -0.88140564535E-03  0.24507725975E-01  0.25091795540E-01  0.51109989000E-03 0. -1.
     -623    1    1    2    0    0 -0.26963809042E-02  0.42529375278E-02  0.96535212869E-03  0.25126700523E+02  0.25126700000E+02 0.  1.
     -611    1    3    3    0    0 -0.32021776530E-01 -0.15822224519E-01  0.10184746426E+02  0.10184813965E+02  0.10000000000E-01 0. -1.
      611    1    3    3    0    0  0.29433134072E-01  0.12450692636E-01  0.17897804845E+01  0.17900937160E+01  0.10000000000E-01 0. -1.
</event>
<event>
 7   0  0.6206631E-02  0.9118800E+02  0.7818608E-02  0.1180000E+00
       11   -1    0    0    0    0  0.00000000000E+00  0.00000000000E+00  0.11999999989E+02  0.12000000000E+02  0.51109989000E-03 0.  1.
     -623   -1    0    0    0    0  0.00000000000E+00  0.00000000000E+00  0.42561509872E-11  0.25126700000E+02  0.25126700000E+02 0.  1.
      622    2    1    2    0    0 -0.45639514563E-01  0.41711240851E-01  0.44671839261E+01  0.44695111869E+01  0.13028901387E+00 0.  0.
       11    1    1    2    0    0  0.29115747421E-01 -0.58130866239E-01  0.75301972016E+01  0.75304778786E+01  0.51109989000E-03 0.  1.
     -623    1    1    2    0    0  0.16523767142E-01  0.16419625388E-01  0.26188614616E-02  0.25126710935E+02  0.25126700000E+02 0.  1.
     -611    1    3    3    0    0 -0.14842875764E-01  0.59254191376E-01  0.89518771341E+00  0.89732514307E+00  0.10000000000E-01 0.  1.
      611    1    3    3    0    0 -0.30796638799E-01 -0.17542950525E-01  0.35719962127E+01  0.35721860438E+01  0.10000000000E-01 0. -1.
</event>
<event>
 7   0  0.6206631E-02  0.9118800E+02  0.7818608E-02  0.1180000E+00
       11   -1    0    0    0    0  0.00000000000E+00  0.00000000000E+00  0.11999999989E+02  0.12000000000E+02  0.51109989000E-03 0.  1.
     -623   -1    0    0    0    0  0.00000000000E+00  0.00000000000E+00  0.42561509872E-11  0.25126700000E+02  0.25126700000E+02 0. -1.
      622    2    1    2    0    0  0.33878515224E-01  0.19095668969E-02  0.10405189156E+02  0.10405752087E+02  0.10277993084E+00 0.  0.
       11    1    1    2    0    0 -0.38893786631E-01  0.35048922746E-03  0.15937726654E+01  0.15942472894E+01  0.51109989000E-03 0.  1.
     -623    1    1    2    0    0  0.50152714068E-02 -0.22600561244E-02  0.10381672481E-02  0.25126700624E+02  0.25126700000E+02 0. -1.
     -611    1    3    3    0    0  0.17496040016E-01  0.21284278126E-01  0.96883485038E+01  0.96883928421E+01  0.10000000000E-01 0.  1.
      611    1    3    3    0    0  0.16382475208E-01 -0.19374711229E-01  0.71684065267E+00  0.71735924491E+00  0.10000000000E-01 0. -1.
</event>
<event>
 6   0  0.6206631E-02  0.9118800E+02  0.7818608E-02  0.1180000E+00
       11   -1    0    0    0    0  0.00000000000E+00  0.00000000000E+00  0.11999999989E+02  0.12000000000E+02  0.51109989000E-03 0.  1.
     -623   -1    0    0    0    0  0.00000000000E+00  0.00000000000E+00  0.42561509872E-11  0.25126700000E+02  0.25126700000E+02 0. -1.
       11    1    1    2    0    0  0.30898222706E-01  0.17465410301E-01 -0.18874348982E-01  0.40202524747E-01  0.51109989000E-03 0.  1.
     -623    1    1    2    0    0 -0.58451720384E-01 -0.83179850246E-01  0.78702134852E-01  0.25127028921E+02  0.25126700000E+02 0. -1.
     -611    1    1    2    0    0 -0.11545581687E+00 -0.27717219766E+00  0.44971674160E+01  0.45071908369E+01  0.10000000000E-01 0.  1.
      611    1    1    2    0    0  0.14300931455E+00  0.34288663760E+00  0.74430047872E+01  0.74522777171E+01  0.10000000000E-01 0. -1.
</event>
<event>
 7   0  0.6206631E-02  0.9118800E+02  0.7818608E-02  0.1180000E+00
       11   -1    0    0    0    0  0.00000000000E+00  0.00000000000E+00  0.11999999989E+02  0.12000000000E+02  0.51109989000E-03 0.  1.
     -623   -1    0    0    0    0  0.00000000000E+00  0.00000000000E+00  0.42561509872E-11  0.25126700000E+02  0.25126700000E+02 0. -1.
      622    2    1    2    0    0  0.40269666507E-02  0.10583110336E-01  0.11979462229E+02  0.11980446745E+02  0.15316885367E+00 0.  0.
       11    1    1    2    0    0  0.21479806660E-02 -0.33320409678E-02  0.19138446738E-01  0.19551411321E-01  0.51109989000E-03 0.  1.
     -623    1    1    2    0    0 -0.61749473167E-02 -0.72510693683E-02  0.13993137903E-02  0.25126701844E+02  0.25126700000E+02 0. -1.
     -611    1    3    3    0    0 -0.37802535039E-01 -0.59540562158E-01  0.57666844622E+01  0.57671243958E+01  0.10000000000E-01 0. -1.
      611    1    3    3    0    0  0.41829501690E-01  0.70123672494E-01  0.62127777664E+01  0.62133223489E+01  0.10000000000E-01 0.  1.
</event>
<event>
 7   0  0.6206631E-02  0.9118800E+02  0.7818608E-02  0.1180000E+00
       11   -1    0    0    0    0  0.00000000000E+00  0.00000000000E+00  0.11999999989E+02  0.12000000000E+02  0.51109989000E-03 0. -1.
     -623   -1    0    0    0    0  0.00000000000E+00  0.00000000000E+00  0.42561509872E-11  0.25126700000E+02  0.25126700000E+02 0.  1.
      622    2    1    2    0    0  0.31723075766E-02 -0.52523731018E-02  0.11894536786E+02  0.11894886445E+02  0.90997416579E-01 0.  0.
       11    1    1    2    0    0 -0.34246007539E-02  0.21793520680E-02  0.10503370977E+00  0.10511336202E+00  0.51109989000E-03 0. -1.
     -623    1    1    2    0    0  0.25229317738E-03  0.30730210338E-02  0.42949301590E-03  0.25126700193E+02  0.25126700000E+02 0.  1.
     -611    1    3    3    0    0 -0.17435766144E-01  0.30227956688E-03  0.62149063268E+00  0.62181565100E+00  0.10000000000E-01 0.  1.
      611    1    3    3    0    0  0.20608073721E-01 -0.55546526687E-02  0.11273046154E+02  0.11273070794E+02  0.10000000000E-01 0. -1.
</event>
<event>
 7   0  0.6206631E-02  0.9118800E+02  0.7818608E-02  0.1180000E+00
       11   -1    0    0    0    0  0.00000000000E+00  0.00000000000E+00  0.11999999989E+02  0.12000000000E+02  0.51109989000E-03 0.  1.
     -623   -1    0    0    0    0  0.00000000000E+00  0.00000000000E+00  0.42561509872E-11  0.25126700000E+02  0.25126700000E+02 0. -1.
      622    2    1    2    0    0 -0.34805656768E-02  0.59085794243E-02  0.11869973772E+02  0.11870534606E+02  0.11518445484E+00 0.  0.
       11    1    1    2    0    0  0.21046800907E-02 -0.54301999200E-02  0.12933327837E+00  0.12946534234E+00  0.51109989000E-03 0.  1.
     -623    1    1    2    0    0  0.13758855861E-02 -0.47837950420E-03  0.69293886675E-03  0.25126700052E+02  0.25126700000E+02 0. -1.
     -611    1    3    3    0    0 -0.18352012891E-01  0.17348754726E-01  0.68205675720E+00  0.68259738917E+00  0.10000000000E-01 0. -1.
      611    1    3    3    0    0  0.14871447214E-01 -0.11440175302E-01  0.11187917015E+02  0.11187937217E+02  0.10000000000E-01 0.  1.
</event>
<event>
 7   0  0.6206631E-02  0.9118800E+02  0.7818608E-02  0.1180000E+00
       11   -1    0    0    0    0  0.00000000000E+00  0.00000000000E+00  0.11999999989E+02  0.12000000000E+02  0.51109989000E-03 0.  1.
     -623   -1    0    0    0    0  0.00000000000E+00  0.00000000000E+00  0.42561509872E-11  0.25126700000E+02  0.25126700000E+02 0.  1.
      622    2    1    2    0    0  0.15330381696E-02  0.14627700660E-02  0.11917275457E+02  0.11917412650E+02  0.57144239056E-01 0.  0.
       11    1    1    2    0    0  0.25942173866E-02 -0.19806224479E-02  0.82520902411E-01  0.82587004953E-01  0.51109989000E-03 0.  1.
     -623    1    1    2    0    0 -0.41272555562E-02  0.51785238190E-03  0.20362985674E-03  0.25126700345E+02  0.25126700000E+02 0.  1.
     -611    1    3    3    0    0 -0.13972689850E-01 -0.97930484738E-02  0.99295396454E+01  0.99295593411E+01  0.10000000000E-01 0.  1.
      611    1    3    3    0    0  0.15505728020E-01  0.11255818540E-01  0.19877358115E+01  0.19878533088E+01  0.10000000000E-01 0. -1.
</event>
<event>
 7   0  0.6206631E-02  0.9118800E+02  0.7818608E-02  0.1180000E+00
       11   -1    0    0    0    0  0.00000000000E+00  0.00000000000E+00  0.11999999989E+02  0.12000000000E+02  0.51109989000E-03 0. -1.
     -623   -1    0    0    0    0  0.00000000000E+00  0.00000000000E+00  0.42561509872E-11  0.25126700000E+02  0.25126700000E+02 0.  1.
      622    2    1    2    0    0 -0.42887391975E-02 -0.14598584714E-03  0.11919625137E+02  0.11919869141E+02  0.76148101787E-01 0.  0.
       11    1    1    2    0    0  0.31435669974E-02  0.36453171447E-03  0.80066683231E-01  0.80130829795E-01  0.51109989000E-03 0. -1.
     -623    1    1    2    0    0  0.11451722001E-02 -0.21854586733E-03  0.30816929283E-03  0.25126700029E+02  0.25126700000E+02 0.  1.
     -611    1    3    3    0    0  0.17839043317E-01  0.18651863577E-01  0.96100926639E+01  0.96101325241E+01  0.10000000000E-01 0. -1.
      611    1    3    3    0    0 -0.22127782514E-01 -0.18797849424E-01  0.23095324727E+01  0.23097366171E+01  0.10000000000E-01 0.  1.
</event>
<event>
 7   0  0.6206631E-02  0.9118800E+02  0.7818608E-02  0.1180000E+00
       11   -1    0    0    0    0  0.00000000000E+00  0.00000000000E+00  0.11999999989E+02  0.12000000000E+02  0.51109989000E-03 0. -1.
     -623   -1    0    0    0    0  0.00000000000E+00  0.00000000000E+00  0.42561509872E-11  0.25126700000E+02  0.25126700000E+02 0.  1.
      622    2    1    2    0    0 -0.33880910688E-01 -0.35371295722E-01  0.90190598799E+01  0.90202972981E+01  0.14114950897E+00 0.  0.
       11    1    1    2    0    0  0.41947656356E-01  0.30687956846E-01  0.29792475420E+01  0.29797009136E+01  0.51109989000E-03 0. -1.
     -623    1    1    2    0    0 -0.80667456683E-02  0.46833388762E-02  0.16925672204E-02  0.25126701788E+02  0.25126700000E+02 0.  1.
     -611    1    3    3    0    0  0.13699790477E-01 -0.72131044193E-01  0.67897342485E+01  0.67901385653E+01  0.10000000000E-01 0. -1.
      611    1    3    3    0    0 -0.47580701165E-01  0.36759748471E-01  0.22293256315E+01  0.22301587328E+01  0.10000000000E-01 0.  1.
</event>
<event>
 7   0  0.6206631E-02  0.9118800E+02  0.7818608E-02  0.1180000E+00
       11   -1    0    0    0    0  0.00000000000E+00  0.00000000000E+00  0.11999999989E+02  0.12000000000E+02  0.51109989000E-03 0.  1.
     -623   -1    0    0    0    0  0.00000000000E+00  0.00000000000E+00  0.42561509872E-11  0.25126700000E+02  0.25126700000E+02 0. -1.
      622    2    1    2    0    0  0.15642159795E-01 -0.19155610699E-02  0.11622979629E+02  0.11623345654E+02  0.90886695470E-01 0.  0.
       11    1    1    2    0    0 -0.16727633071E-01  0.16871682902E-02  0.37627855133E+00  0.37665431055E+00  0.51109989000E-03 0.  1.
     -623    1    1    2    0    0  0.10854732759E-02  0.22839277971E-03  0.74180885341E-03  0.25126700035E+02  0.25126700000E+02 0. -1.
     -611    1    3    3    0    0 -0.55688693485E-02 -0.31951316941E-01  0.92320478342E+01  0.92321102199E+01  0.10000000000E-01 0.  1.
      611    1    3    3    0    0  0.21211029144E-01  0.30035755871E-01  0.23909317948E+01  0.23912354342E+01  0.10000000000E-01 0. -1.
</event>
<event>
 7   0  0.6206631E-02  0.9118800E+02  0.7818608E-02  0.1180000E+00
       11   -1    0    0    0    0  0.00000000000E+00  0.00000000000E+00  0.11999999989E+02  0.12000000000E+02  0.51109989000E-03 0. -1.
     -623   -1    0    0    0    0  0.00000000000E+00  0.00000000000E+00  0.42561509872E-11  0.25126700000E+02  0.25126700000E+02 0. -1.
      622    2    1    2    0    0  0.17255347557E-01  0.19000510178E-01  0.10537737952E+02  0.10538287133E+02  0.10447864566E+00 0.  0.
       11    1    1    2    0    0  0.23483900399E-01 -0.23139053092E-01  0.14613075436E+01  0.14616794819E+01  0.51109989000E-03 0. -1.
     -623    1    1    2    0    0 -0.40739247956E-01  0.41385429149E-02  0.95449367570E-03  0.25126733385E+02  0.25126700000E+02 0. -1.
     -611    1    3    3    0    0 -0.17143299585E-02  0.20688018841E-01  0.50430782370E+00  0.50483394705E+00  0.10000000000E-01 0.  1.
      611    1    3    3    0    0  0.18969677515E-01 -0.16875086632E-02  0.10033430128E+02  0.10033453186E+02  0.10000000000E-01 0. -1.
</event>
<event>
 7   0  0.6206631E-02  0.9118800E+02  0.7818608E-02  0.1180000E+00
       11   -1    0    0    0    0  0.00000000000E+00  0.00000000000E+00  0.11999999989E+02  0.12000000000E+02  0.51109989000E-03 0. -1.
     -623   -1    0    0    0    0  0.00000000000E+00  0.00000000000E+00  0.42561509872E-11  0.25126700000E+02  0.25126700000E+02 0.  1.
      622    2    1    2    0    0  0.11049667317E-01  0.55786787100E-01  0.10322755617E+02  0.10323965190E+02  0.14744309088E+00 0.  0.
       11    1    1    2    0    0 -0.18305712361E-01 -0.57721376912E-01  0.16749392378E+01  0.16760335821E+01  0.51109989000E-03 0. -1.
     -623    1    1    2    0    0  0.72560450447E-02  0.19345898125E-02  0.23051347035E-02  0.25126701228E+02  0.25126700000E+02 0.  1.
     -611    1    3    3    0    0  0.42416975900E-02  0.26050774481E-01  0.34340958630E+00  0.34456752432E+00  0.10000000000E-01 0.  1.
      611    1    3    3    0    0  0.68079697267E-02  0.29736012619E-01  0.99793460303E+01  0.99793976657E+01  0.10000000000E-01 0. -1.
</event>
<event>
 7   0  0.6206631E-02  0.9118800E+02  0.7818608E-02  0.1180000E+00
       11   -1    0    0    0    0  0.00000000000E+00  0.00000000000E+00  0.11999999989E+02  0.12000000000E+02  0.51109989000E-03 0.  1.
     -623   -1    0    0    0    0  0.00000000000E+00  0.00000000000E+00  0.42561509872E-11  0.25126700000E+02  0.25126700000E+02 0. -1.
      622    2    1    2    0    0 -0.21608745181E-02 -0.76571177804E-02  0.11986158193E+02  0.11987286453E+02  0.16427110144E+00 0.  0.
       11    1    1    2    0    0 -0.28022638085E-02  0.26844559154E-02  0.12094938563E-01  0.12712503609E-01  0.51109989000E-03 0.  1.
     -623    1    1    2    0    0  0.49631383266E-02  0.49726618650E-02  0.17468578195E-02  0.25126701043E+02  0.25126700000E+02 0. -1.
     -611    1    3    3    0    0 -0.60901571497E-02 -0.64160790110E-01  0.22174344366E+01  0.22183933775E+01  0.10000000000E-01 0. -1.
      611    1    3    3    0    0  0.39292826316E-02  0.56503672329E-01  0.97687237561E+01  0.97688930759E+01  0.10000000000E-01 0.  1.
</event>
<event>
 7   0  0.6206631E-02  0.9118800E+02  0.7818608E-02  0.1180000E+00
       11   -1    0    0    0    0  0.00000000000E+00  0.00000000000E+00  0.11999999989E+02  0.12000000000E+02  0.51109989000E-03 0.  1.
     -623   -1    0    0    0    0  0.00000000000E+00  0.00000000000E+00  0.42561509872E-11  0.25126700000E+02  0.25126700000E+02 0. -1.
      622    2    1    2    0    0 -0.32166677978E-01  0.91837827787E-01  0.56938327009E+01  0.56956288535E+01  0.10482522738E+00 0.  0.
       11    1    1    2    0    0  0.66642446777E-01 -0.63000600676E-01  0.63036637414E+01  0.63043308223E+01  0.51109989000E-03 0.  1.
     -623    1    1    2    0    0 -0.34475768800E-01 -0.28837227111E-01  0.25035468065E-02  0.25126740324E+02  0.25126700000E+02 0. -1.
     -611    1    3    3    0    0 -0.49801564858E-01  0.10355897535E+00  0.51509721207E+01  0.51522634294E+01  0.10000000000E-01 0.  1.
      611    1    3    3    0    0  0.17634886881E-01 -0.11721147560E-01  0.54286058020E+00  0.54336542407E+00  0.10000000000E-01 0. -1.
</event>
<event>
 7   0  0.6206631E-02  0.9118800E+02  0.7818608E-02  0.1180000E+00
       11   -1    0    0    0    0  0.00000000000E+00  0.00000000000E+00  0.11999999989E+02  0.12000000000E+02  0.51109989000E-03 0. -1.
     -623   -1    0    0    0    0  0.00000000000E+00  0.00000000000E+00  0.42561509872E-11  0.25126700000E+02  0.25126700000E+02 0.  1.
      622    2    1    2    0    0 -0.81472774429E-02  0.24176237528E-01  0.10314040680E+02  0.10314842141E+02  0.12602529197E+00 0.  0.
       11    1    1    2    0    0  0.11870905084E-02 -0.27646702014E-01  0.16849293375E+01  0.16851566346E+01  0.51109989000E-03 0. -1.
     -623    1    1    2    0    0  0.69601869345E-02  0.34704644858E-02  0.10299718192E-02  0.25126701225E+02  0.25126700000E+02 0.  1.
     -611    1    3    3    0    0 -0.59398337394E-01  0.22852078420E-01  0.77597773748E+01  0.77600447993E+01  0.10000000000E-01 0. -1.
      611    1    3    3    0    0  0.51251059951E-01  0.13241591083E-02  0.25542633049E+01  0.25547973414E+01  0.10000000000E-01 0.  1.
</event>
<event>
 7   0  0.6206631E-02  0.9118800E+02  0.7818608E-02  0.1180000E+00
       11   -1    0    0    0    0  0.00000000000E+00  0.00000000000E+00  0.11999999989E+02  0.12000000000E+02  0.51109989000E-03 0.  1.
     -623   -1    0    0    0    0  0.00000000000E+00  0.00000000000E+00  0.42561509872E-11  0.25126700000E+02  0.25126700000E+02 0. -1.
      622    2    1    2    0    0  0.27964017844E-03  0.12203601327E-02  0.11996916430E+02  0.11997089262E+02  0.64384459391E-01 0.  0.
       11    1    1    2    0    0  0.73992673927E-04 -0.23483911087E-04  0.28644302696E-02  0.29107061566E-02  0.51109989000E-03 0.  1.
     -623    1    1    2    0    0 -0.35363285237E-03 -0.11968762216E-02  0.21912871069E-03  0.25126700032E+02  0.25126700000E+02 0. -1.
     -611    1    3    3    0    0  0.22140344817E-01  0.56259224581E-02  0.98845423612E+01  0.98845738166E+01  0.10000000000E-01 0.  1.
      611    1    3    3    0    0 -0.21860704639E-01 -0.44055623254E-02  0.21123740689E+01  0.21125154452E+01  0.10000000000E-01 0. -1.
</event>
<event>
 7   0  0.6206631E-02  0.9118800E+02  0.7818608E-02  0.1180000E+00
       11   -1    0    0    0    0  0.00000000000E+00  0.00000000000E+00  0.11999999989E+02  0.12000000000E+02  0.51109989000E-03 0. -1.
     -623   -1    0    0    0    0  0.00000000000E+00  0.00000000000E+00  0.42561509872E-11  0.25126700000E+02  0.25126700000E+02 0. -1.
      622    2    1    2    0    0 -0.63441588948E-01 -0.29192352104E-01  0.70190524354E+01  0.70199731377E+01  0.89714738319E-01 0.  0.
       11    1    1    2    0    0  0.57765573971E-01  0.33952414769E-01  0.49795749226E+01  0.49800257328E+01  0.51109989000E-03 0. -1.
     -623    1    1    2    0    0  0.56760149772E-02 -0.47600626644E-02  0.13726310347E-02  0.25126701129E+02  0.25126700000E+02 0. -1.
     -611    1    3    3    0    0 -0.33261502710E-01  0.15686366852E-01  0.10907351762E+01  0.10914007579E+01  0.10000000000E-01 0.  1.
      611    1    3    3    0    0 -0.30180086238E-01 -0.44878718956E-01  0.59283172592E+01  0.59285723799E+01  0.10000000000E-01 0. -1.
</event>
<event>
 7   0  0.6206631E-02  0.9118800E+02  0.7818608E-02  0.1180000E+00
       11   -1    0    0    0    0  0.00000000000E+00  0.00000000000E+00  0.11999999989E+02  0.12000000000E+02  0.51109989000E-03 0.  1.
     -623   -1    0    0    0    0  0.00000000000E+00  0.00000000000E+00  0.42561509872E-11  0.25126700000E+02  0.25126700000E+02 0.  1.
      622    2    1    2    0    0 -0.95817915875E-02  0.62044343197E-02  0.11784577673E+02  0.11785060364E+02  0.10604974079E+00 0.  0.
       11    1    1    2    0    0  0.90625643613E-02 -0.81796253680E-02  0.21459195687E+00  0.21493953922E+00  0.51109989000E-03 0.  1.
     -623    1    1    2    0    0  0.51922722618E-03  0.19751910482E-02  0.83035923668E-03  0.25126700097E+02  0.25126700000E+02 0.  1.
     -611    1    3    3    0    0 -0.41674969548E-01  0.32151487630E-01  0.38957164481E+01  0.38960848509E+01  0.10000000000E-01 0. -1.
      611    1    3    3    0    0  0.32093177961E-01 -0.25947053310E-01  0.78888612248E+01  0.78889755131E+01  0.10000000000E-01 0.  1.
</event>
<event>
 7   0  0.6206631E-02  0.9118800E+02  0.7818608E-02  0.1180000E+00
       11   -1    0    0    0    0  0.00000000000E+00  0.00000000000E+00  0.11999999989E+02  0.12000000000E+02  0.51109989000E-03 0. -1.
     -623   -1    0    0    0    0  0.00000000000E+00  0.00000000000E+00  0.42561509872E-11  0.25126700000E+02  0.25126700000E+02 0.  1.
      622    2    1    2    0    0 -0.14521277553E-02 -0.11170019373E-03  0.11991944013E+02  0.11992361266E+02  0.10002702422E+00 0.  0.
       11    1    1    2    0    0  0.59494295020E-03  0.85944199899E-03  0.75495667188E-02  0.76387026650E-02  0.51109989000E-03 0. -1.
     -623    1    1    2    0    0  0.85718480509E-03 -0.74774180526E-03  0.50640905805E-03  0.25126700031E+02  0.25126700000E+02 0.  1.
     -611    1    3    3    0    0  0.82318939236E-02  0.13816791207E-01  0.44762204299E+00  0.44802250074E+00  0.10000000000E-01 0.  1.
      611    1    3    3    0    0 -0.96840216789E-02 -0.13928491401E-01  0.11544321970E+02  0.11544338766E+02  0.10000000000E-01 0. -1.
</event>
<event>
 7   0  0.6206631E-02  0.9118800E+02  0.7818608E-02  0.1180000E+00
       11   -1    0    0    0    0  0.00000000000E+00  0.00000000000E+00  0.11999999989E+02  0.12000000000E+02  0.51109989000E-03 0.  1.
     -623   -1    0    0    0    0  0.00000000000E+00  0.00000000000E+00  0.42561509872E-11  0.25126700000E+02  0.25126700000E+02 0.  1.
      622    2    1    2    0    0  0.57918679829E-02  0.81134316604E-03  0.11979639609E+02  0.11979706548E+02  0.39618278359E-01 0.  0.
       11    1    1    2    0    0 -0.56520568577E-02 -0.78493818677E-03  0.19467933278E-01  0.20293435488E-01  0.51109989000E-03 0.  1.
     -623    1    1    2    0    0 -0.13981112529E-03 -0.26404979266E-04  0.89244647018E-03  0.25126700016E+02  0.25126700000E+02 0.  1.
     -611    1    3    3    0    0  0.17741577256E-01  0.31888066022E-02  0.41620014225E+01  0.41620524712E+01  0.10000000000E-01 0.  1.
      611    1    3    3    0    0 -0.11949709273E-01 -0.23774634362E-02  0.78176381868E+01  0.78176540770E+01  0.10000000000E-01 0.  1.
</event>
<event>
 7   0  0.6206631E-02  0.9118800E+02  0.7818608E-02  0.1180000E+00
       11   -1    0    0    0    0  0.00000000000E+00  0.00000000000E+00  0.11999999989E+02  0.12000000000E+02  0.51109989000E-03 0. -1.
     -623   -1    0    0    0    0  0.00000000000E+00  0.00000000000E+00  0.42561509872E-11  0.25126700000E+02  0.25126700000E+02 0.  1.
      622    2    1    2    0    0 -0.49531845857E-01 -0.12921786344E-01  0.66524903204E+01  0.66534302915E+01  0.99432414087E-01 0.  0.
       11    1    1    2    0    0  0.40250502744E-01  0.16596125053E-01  0.53463904069E+01  0.53465677007E+01  0.51109989000E-03 0. -1.
     -623    1    1    2    0    0  0.92813431135E-02 -0.36743387086E-02  0.11192618514E-02  0.25126702008E+02  0.25126700000E+02 0.  1.
     -611    1    3    3    0    0  0.43724410008E-02  0.69678937510E-02  0.48095242254E+01  0.48095416564E+01  0.10000000000E-01 0.  1.
      611    1    3    3    0    0 -0.53904286858E-01 -0.19889680095E-01  0.18429660950E+01  0.18438886352E+01  0.10000000000E-01 0. -1.
</event>
<event>
 7   0  0.6206631E-02  0.9118800E+02  0.7818608E-02  0.1180000E+00
       11   -1    0    0    0    0  0.00000000000E+00  0.00000000000E+00  0.11999999989E+02  0.12000000000E+02  0.51109989000E-03 0.  1.
     -623   -1    0    0    0    0  0.00000000000E+00  0.00000000000E+00  0.42561509872E-11  0.25126700000E+02  0.25126700000E+02 0. -1.
      622    2    1    2    0    0 -0.59683486383E-02 -0.79835531183E-02  0.11963602572E+02  0.11964187028E+02  0.11783624580E+00 0.  0.
       11    1    1    2    0    0  0.16265703686E-02  0.90816484215E-02  0.34599891280E-01  0.35812508554E-01  0.51109989000E-03 0.  1.
     -623    1    1    2    0    0  0.43417782696E-02 -0.10980953032E-02  0.17975257602E-02  0.25126700463E+02  0.25126700000E+02 0. -1.
     -611    1    3    3    0    0 -0.59922311429E-01 -0.50350169774E-02  0.74636985396E+01  0.74639474760E+01  0.10000000000E-01 0.  1.
      611    1    3    3    0    0  0.53953962791E-01 -0.29485361409E-02  0.44999040325E+01  0.45002395520E+01  0.10000000000E-01 0. -1.
</event>
<event>
 7   0  0.6206631E-02  0.9118800E+02  0.7818608E-02  0.1180000E+00
       11   -1    0    0    0    0  0.00000000000E+00  0.00000000000E+00  0.11999999989E+02  0.12000000000E+02  0.51109989000E-03 0. -1.
     -623   -1    0    0    0    0  0.00000000000E+00  0.00000000000E+00  0.42561509872E-11  0.25126700000E+02  0.25126700000E+02 0. -1.
      622    2    1    2    0    0 -0.21571131210E-03  0.87408040707E-02  0.11992492498E+02  0.11992963007E+02  0.10587223739E+00 0.  0.
       11    1    1    2    0    0 -0.44052253824E-02  0.48561153863E-03  0.54392276894E-02  0.70347885716E-02  0.51109989000E-03 0. -1.
     -623    1    1    2    0    0  0.46209366945E-02 -0.92264156093E-02  0.20682632391E-02  0.25126702204E+02  0.25126700000E+02 0. -1.
     -611    1    3    3    0    0 -0.18466590427E-01  0.33839589175E-01  0.18977321806E+01  0.18981500368E+01  0.10000000000E-01 0.  1.
      611    1    3    3    0    0  0.18250879115E-01 -0.25098785104E-01  0.10094760318E+02  0.10094812971E+02  0.10000000000E-01 0. -1.
</event>
<event>
 7   0  0.6206631E-02  0.9118800E+02  0.7818608E-02  0.1180000E+00
       11   -1    0    0    0    0  0.00000000000E+00  0.00000000000E+00  0.11999999989E+02  0.12000000000E+02  0.51109989000E-03 0. -1.
     -623   -1    0    0    0    0  0.00000000000E+00  0.00000000000E+00  0.42561509872E-11  0.25126700000E+02  0.25126700000E+02 0.  1.
      622    2    1    2    0    0  0.30035266366E-01  0.30095876057E-02  0.61403340250E+01  0.61415013023E+01  0.11586687358E+00 0.  0.
       11    1    1    2    0    0 -0.48510095995E-01  0.99166966300E-01  0.58572437491E+01  0.58582840418E+01  0.51109989000E-03 0. -1.
     -623    1    1    2    0    0  0.18474829629E-01 -0.10217655391E+00  0.24222149701E-02  0.25126914656E+02  0.25126700000E+02 0.  1.
     -611    1    3    3    0    0 -0.29915175796E-01  0.38147535823E-01  0.26075057244E+01  0.26079755089E+01  0.10000000000E-01 0.  1.
      611    1    3    3    0    0  0.59950442162E-01 -0.35137948217E-01  0.35328283006E+01  0.35335257934E+01  0.10000000000E-01 0. -1.
</event>
<event>
 7   0  0.6206631E-02  0.9118800E+02  0.7818608E-02  0.1180000E+00
       11   -1    0    0    0    0  0.00000000000E+00  0.00000000000E+00  0.11999999989E+02  0.12000000000E+02  0.51109989000E-03 0.  1.
     -623   -1    0    0    0    0  0.00000000000E+00  0.00000000000E+00  0.42561509872E-11  0.25126700000E+02  0.25126700000E+02 0.  1.
      622    2    1    2    0    0  0.40110481650E-01  0.23531910894E-01  0.10006847266E+02  0.10007620490E+02  0.11538222540E+00 0.  0.
       11    1    1    2    0    0 -0.57081485879E-01 -0.21974244391E-01  0.19914345142E+01  0.19923736721E+01  0.51109989000E-03 0.  1.
     -623    1    1    2    0    0  0.16971004229E-01 -0.15576665025E-02  0.17182088713E-02  0.25126705838E+02  0.25126700000E+02 0.  1.
     -611    1    3    3    0    0  0.60904625688E-01  0.53304898503E-01  0.53577410187E+01  0.53583616534E+01  0.10000000000E-01 0.  1.
      611    1    3    3    0    0 -0.20794144037E-01 -0.29772987609E-01  0.46491062474E+01  0.46492588363E+01  0.10000000000E-01 0. -1.
</event>
<event>
 7   0  0.6206631E-02  0.9118800E+02  0.7818608E-02  0.1180000E+00
       11   -1    0    0    0    0  0.00000000000E+00  0.00000000000E+00  0.11999999989E+02  0.12000000000E+02  0.51109989000E-03 0.  1.
     -623   -1    0    0    0    0  0.00000000000E+00  0.00000000000E+00  0.42561509872E-11  0.25126700000E+02  0.25126700000E+02 0.  1.
      622    2    1    2    0    0  0.20368893857E-02  0.24762100638E-01  0.11842783016E+02  0.11843132611E+02  0.87539501932E-01 0.  0.
       11    1    1    2    0    0 -0.38545310615E-02 -0.31868467033E-01  0.15354556291E+00  0.15686605023E+00  0.51109989000E-03 0.  1.
     -623    1    1    2    0    0  0.18176416757E-02  0.71063663949E-02  0.36714102048E-02  0.25126701339E+02  0.25126700000E+02 0.  1.
     -611    1    3    3    0    0  0.15209649415E-01  0.36277467683E-01  0.25123903908E+01  0.25127182222E+01  0.10000000000E-01 0. -1.
      611    1    3    3    0    0 -0.13172760029E-01 -0.11515367045E-01  0.93303926252E+01  0.93304143887E+01  0.10000000000E-01 0.  1.
</event>
<event>
 7   0  0.6206631E-02  0.9118800E+02  0.7818608E-02  0.1180000E+00
       11   -1    0    0    0    0  0.00000000000E+00  0.00000000000E+00  0.11999999989E+02  0.12000000000E+02  0.51109989000E-03 0. -1.
     -623   -1    0    0    0    0  0.00000000000E+00  0.00000000000E+00  0.42561509872E-11  0.25126700000E+02  0.25126700000E+02 0. -1.
      622    2    1    2    0    0  0.42313205126E-01  0.28675341075E-01  0.86593284113E+01  0.86599271918E+01  0.88078095106E-01 0.  0.
       11    1    1    2    0    0 -0.43447010874E-01 -0.27556148963E-01  0.33396764289E+01  0.33400727380E+01  0.51109989000E-03 0. -1.
     -623    1    1    2    0    0  0.11338057483E-02 -0.11191921120E-02  0.99514897145E-03  0.25126700070E+02  0.25126700000E+02 0. -1.
     -611    1    3    3    0    0 -0.23782601051E-01  0.16675514262E-01  0.17954510630E+01  0.17957138426E+01  0.10000000000E-01 0.  1.
      611    1    3    3    0    0  0.66095806177E-01  0.11999826812E-01  0.68638773483E+01  0.68642133493E+01  0.10000000000E-01 0. -1.
</event>
<event>
 7   0  0.6206631E-02  0.9118800E+02  0.7818608E-02  0.1180000E+00
       11   -1    0    0    0    0  0.00000000000E+00  0.00000000000E+00  0.11999999989E+02  0.12000000000E+02  0.51109989000E-03 0.  1.
     -623   -1    0    0    0    0  0.00000000000E+00  0.00000000000E+00  0.42561509872E-11  0.25126700000E+02  0.25126700000E+02 0.  1.
      622    2    1    2    0    0 -0.13299753203E-01 -0.31781489858E-01  0.10760544627E+02  0.10761410610E+02  0.13210117048E+00 0.  0.
       11    1    1    2    0    0 -0.19810969780E-01  0.12762867925E-01  0.12383360275E+01  0.12385603512E+01  0.51109989000E-03 0.  1.
     -623    1    1    2    0    0  0.33110722983E-01  0.19018621932E-01  0.11193351028E-02  0.25126729038E+02  0.25126700000E+02 0.  1.
     -611    1    3    3    0    0  0.34081100350E-01 -0.21323000056E-02  0.90077570185E+00  0.90147819338E+00  0.10000000000E-01 0. -1.
      611    1    3    3    0    0 -0.47380853553E-01 -0.29649189852E-01  0.98597689247E+01  0.98599324170E+01  0.10000000000E-01 0.  1.
</event>
<event>
 7   0  0.6206631E-02  0.9118800E+02  0.7818608E-02  0.1180000E+00
       11   -1    0    0    0    0  0.00000000000E+00  0.00000000000E+00  0.11999999989E+02  0.12000000000E+02  0.51109989000E-03 0.  1.
     -623   -1    0    0    0    0  0.00000000000E+00  0.00000000000E+00  0.42561509872E-11  0.25126700000E+02  0.25126700000E+02 0.  1.
      622    2    1    2    0    0  0.75940008575E-04  0.10693304905E-01  0.11897084682E+02  0.11897525553E+02  0.10186259187E+00 0.  0.
       11    1    1    2    0    0 -0.23992251742E-01 -0.16036022754E-01  0.98312937070E-01  0.10246207585E+00  0.51109989000E-03 0.  1.
     -623    1    1    2    0    0  0.23916311734E-01  0.53427178483E-02  0.46023699624E-02  0.25126712372E+02  0.25126700000E+02 0.  1.
     -611    1    3    3    0    0 -0.19033873015E-01 -0.15044142524E-01  0.10515860598E+02  0.10515893340E+02  0.10000000000E-01 0.  1.
      611    1    3    3    0    0  0.19109813024E-01  0.25737447429E-01  0.13812240841E+01  0.13816322128E+01  0.10000000000E-01 0. -1.
</event>
<event>
 7   0  0.6206631E-02  0.9118800E+02  0.7818608E-02  0.1180000E+00
       11   -1    0    0    0    0  0.00000000000E+00  0.00000000000E+00  0.11999999989E+02  0.12000000000E+02  0.51109989000E-03 0.  1.
     -623   -1    0    0    0    0  0.00000000000E+00  0.00000000000E+00  0.42561509872E-11  0.25126700000E+02  0.25126700000E+02 0.  1.
      622    2    1    2    0    0  0.32339568752E-01 -0.10483033265E-01  0.75017407138E+01  0.75023228150E+01  0.87052520124E-01 0.  0.
       11    1    1    2    0    0 -0.31756714481E-01  0.85434606417E-02  0.44975568364E+01  0.44976770935E+01  0.51109989000E-03 0.  1.
     -623    1    1    2    0    0 -0.58285427151E-03  0.19395726238E-02  0.70243884178E-03  0.25126700091E+02  0.25126700000E+02 0.  1.
     -611    1    3    3    0    0 -0.27798996488E-02  0.30498929030E-01  0.15842949721E+01  0.15846225011E+01  0.10000000000E-01 0.  1.
      611    1    3    3    0    0  0.35119468401E-01 -0.40981962295E-01  0.59174457417E+01  0.59177003139E+01  0.10000000000E-01 0.  1.
</event>
<event>
 7   0  0.6206631E-02  0.9118800E+02  0.7818608E-02  0.1180000E+00
       11   -1    0    0    0    0  0.00000000000E+00  0.00000000000E+00  0.11999999989E+02  0.12000000000E+02  0.51109989000E-03 0.  1.
     -623   -1    0    0    0    0  0.00000000000E+00  0.00000000000E+00  0.42561509872E-11  0.25126700000E+02  0.25126700000E+02 0.  1.
      622    2    1    2    0    0 -0.16535953362E-02  0.13920394905E-01  0.10716419214E+02  0.10717377526E+02  0.14263154740E+00 0.  0.
       11    1    1    2    0    0  0.37151006531E-02 -0.10096048059E-01  0.12825768601E+01  0.12826220782E+01  0.51109989000E-03 0.  1.
     -623    1    1    2    0    0 -0.20615053169E-02 -0.38243468462E-02  0.10039151198E-02  0.25126700396E+02  0.25126700000E+02 0.  1.
     -611    1    3    3    0    0 -0.63868490801E-01  0.21761273982E-01  0.34085671027E+01  0.34092495407E+01  0.10000000000E-01 0. -1.
      611    1    3    3    0    0  0.62214895465E-01 -0.78408790770E-02  0.73078521112E+01  0.73081279854E+01  0.10000000000E-01 0.  1.
</event>
<event>
 7   0  0.6206631E-02  0.9118800E+02  0.7818608E-02  0.1180000E+00
       11   -1    0    0    0    0  0.00000000000E+00  0.00000000000E+00  0.11999999989E+02  0.12000000000E+02  0.51109989000E-03 0.  1.
     -623   -1    0    0    0    0  0.00000000000E+00  0.00000000000E+00  0.42561509872E-11  0.25126700000E+02  0.25126700000E+02 0.  1.
      622    2    1    2    0    0  0.12672257936E-01  0.28276536892E-01  0.11849298593E+02  0.11849996388E+02  0.12480832299E+00 0.  0.
       11    1    1    2    0    0 -0.53318316004E-02 -0.29449057154E-01  0.14698549114E+00  0.15000223740E+00  0.51109989000E-03 0.  1.
     -623    1    1    2    0    0 -0.73404263355E-02  0.11725202618E-02  0.37159054054E-02  0.25126701374E+02  0.25126700000E+02 0.  1.
     -611    1    3    3    0    0  0.62515606450E-01 -0.41326833234E-02  0.76781486844E+01  0.76784108056E+01  0.10000000000E-01 0.  1.
      611    1    3    3    0    0 -0.49843348514E-01  0.32409220215E-01  0.41711499082E+01  0.41715855827E+01  0.10000000000E-01 0. -1.
</event>
<event>
 7   0  0.6206631E-02  0.9118800E+02  0.7818608E-02  0.1180000E+00
       11   -1    0    0    0    0  0.00000000000E+00  0.00000000000E+00  0.11999999989E+02  0.12000000000E+02  0.51109989000E-03 0. -1.
     -623   -1    0    0    0    0  0.00000000000E+00  0.00000000000E+00  0.42561509872E-11  0.25126700000E+02  0.25126700000E+02 0.  1.
      622    2    1    2    0    0  0.21188725689E-01  0.14715940205E-01  0.10541806806E+02  0.10542186315E+02  0.85650774942E-01 0.  0.
       11    1    1    2    0    0  0.10602259602E-01 -0.58130517113E-01  0.14565578495E+01  0.14577560135E+01  0.51109989000E-03 0. -1.
     -623    1    1    2    0    0 -0.31790985290E-01  0.43414576908E-01  0.16353337015E-02  0.25126757671E+02  0.25126700000E+02 0.  1.
     -611    1    3    3    0    0 -0.32291493326E-01  0.61614574866E-02  0.41432796786E+01  0.41434221604E+01  0.10000000000E-01 0.  1.
      611    1    3    3    0    0  0.53480219015E-01  0.85544827188E-02  0.63985271273E+01  0.63987641551E+01  0.10000000000E-01 0. -1.
</event>
<event>
 7   0  0.6206631E-02  0.9118800E+02  0.7818608E-02  0.1180000E+00
       11   -1    0    0    0    0  0.00000000000E+00  0.00000000000E+00  0.11999999989E+02  0.12000000000E+02  0.51109989000E-03 0.  1.
     -623   -1    0    0    0    0  0.00000000000E+00  0.00000000000E+00  0.42561509872E-11  0.25126700000E+02  0.25126700000E+02 0.  1.
      622    2    1    2    0    0  0.41833524479E-01  0.18834387238E-01  0.10412095992E+02  0.10412601807E+02  0.91807830010E-01 0.  0.
       11    1    1    2    0    0 -0.41167406513E-01 -0.19571019989E-01  0.15867434683E+01  0.15873981465E+01  0.51109989000E-03 0.  1.
     -623    1    1    2    0    0 -0.66611796566E-03  0.73663275164E-03  0.11605293058E-02  0.25126700046E+02  0.25126700000E+02 0.  1.
     -611    1    3    3    0    0  0.25533120041E-01  0.54818342772E-01  0.56967213877E+01  0.56970511284E+01  0.10000000000E-01 0.  1.
      611    1    3    3    0    0  0.16300404438E-01 -0.35983955535E-01  0.47153746039E+01  0.47155506787E+01  0.10000000000E-01 0. -1.
</event>
<event>
 7   0  0.6206631E-02  0.9118800E+02  0.7818608E-02  0.1180000E+00
       11   -1    0    0    0    0  0.00000000000E+00  0.00000000000E+00  0.11999999989E+02  0.12000000000E+02  0.51109989000E-03 0.  1.
     -623   -1    0    0    0    0  0.00000000000E+00  0.00000000000E+00  0.42561509872E-11  0.25126700000E+02  0.25126700000E+02 0.  1.
      622    2    1    2    0    0  0.30420467837E-02  0.60189756201E-02  0.73524381700E+01  0.73531672561E+01  0.10332555400E+00 0.  0.
       11    1    1    2    0    0 -0.17273828682E-02 -0.67426344324E-02  0.46468274473E+01  0.46468326883E+01  0.51109989000E-03 0.  1.
     -623    1    1    2    0    0 -0.13146639155E-02  0.72365881229E-03  0.73437175869E-03  0.25126700056E+02  0.25126700000E+02 0.  1.
     -611    1    3    3    0    0  0.22679167205E-01 -0.17209419570E-01  0.69785389775E+00  0.69850595657E+00  0.10000000000E-01 0. -1.
      611    1    3    3    0    0 -0.19637120421E-01  0.23228395190E-01  0.66545842723E+01  0.66546612996E+01  0.10000000000E-01 0.  1.
</event>
<event>
 7   0  0.6206631E-02  0.9118800E+02  0.7818608E-02  0.1180000E+00
       11   -1    0    0    0    0  0.00000000000E+00  0.00000000000E+00  0.11999999989E+02  0.12000000000E+02  0.51109989000E-03 0.  1.
     -623   -1    0    0    0    0  0.00000000000E+00  0.00000000000E+00  0.42561509872E-11  0.25126700000E+02  0.25126700000E+02 0.  1.
      622    2    1    2    0    0 -0.62377802577E-02 -0.11639349579E-01  0.11777991258E+02  0.11778371172E+02  0.93675028946E-01 0.  0.
       11    1    1    2    0    0  0.20416563276E-02 -0.13183304534E-01  0.22121372630E+00  0.22161620384E+00  0.51109989000E-03 0.  1.
     -623    1    1    2    0    0  0.41961239301E-02  0.24822654112E-01  0.79500490346E-03  0.25126712624E+02  0.25126700000E+02 0.  1.
     -611    1    3    3    0    0 -0.33775851550E-01 -0.40245462252E-01  0.63176324838E+01  0.63178588704E+01  0.10000000000E-01 0. -1.
      611    1    3    3    0    0  0.27538071292E-01  0.28606112674E-01  0.54603587741E+01  0.54605123017E+01  0.10000000000E-01 0.  1.
</event>
<event>
 7   0  0.6206631E-02  0.9118800E+02  0.7818608E-02  0.1180000E+00
       11   -1    0    0    0    0  0.00000000000E+00  0.00000000000E+00  0.11999999989E+02  0.12000000000E+02  0.51109989000E-03 0.  1.
     -623   -1    0    0    0    0  0.00000000000E+00  0.00000000000E+00  0.42561509872E-11  0.25126700000E+02  0.25126700000E+02 0. -1.
      622    2    1    2    0    0  0.21522897702E-01 -0.81093190885E-02  0.10690819188E+02  0.10691320909E+02  0.10098946222E+00 0.  0.
       11    1    1    2    0    0 -0.21719943848E-01  0.78559042049E-02  0.13084751431E+01  0.13086790793E+01  0.51109989000E-03 0.  1.
     -623    1    1    2    0    0  0.19704614617E-03  0.25341488359E-03  0.70565820267E-03  0.25126700012E+02  0.25126700000E+02 0. -1.
     -611    1    3    3    0    0 -0.84091245674E-02  0.19780055288E-01  0.67992193897E+00  0.68033506969E+00  0.10000000000E-01 0. -1.
      611    1    3    3    0    0  0.29932022269E-01 -0.27889374376E-01  0.10010897249E+02  0.10010985839E+02  0.10000000000E-01 0.  1.
</event>
<event>
 7   0  0.6206631E-02  0.9118800E+02  0.7818608E-02  0.1180000E+00
       11   -1    0    0    0    0  0.00000000000E+00  0.00000000000E+00  0.11999999989E+02  0.12000000000E+02  0.51109989000E-03 0. -1.
     -623   -1    0    0    0    0  0.00000000000E+00  0.00000000000E+00  0.42561509872E-11  0.25126700000E+02  0.25126700000E+02 0. -1.
      622    2    1    2    0    0  0.13105453810E-01 -0.58571596070E-02  0.11698393287E+02  0.11699029943E+02  0.12120253822E+00 0.  0.
       11    1    1    2    0    0 -0.14020846288E-01  0.15870519353E-01  0.30022162223E+00  0.30096800692E+00  0.51109989000E-03 0. -1.
     -623    1    1    2    0    0  0.91539247853E-03 -0.10013359746E-01  0.13850800986E-02  0.25126702050E+02  0.25126700000E+02 0. -1.
     -611    1    3    3    0    0  0.27371774842E-01  0.37843985153E-01  0.21923620502E+01  0.21928822906E+01  0.10000000000E-01 0. -1.
      611    1    3    3    0    0 -0.14266321032E-01 -0.43701144760E-01  0.95060312366E+01  0.95061476524E+01  0.10000000000E-01 0.  1.
</event>
<event>
 7   0  0.6206631E-02  0.9118800E+02  0.7818608E-02  0.1180000E+00
       11   -1    0    0    0    0  0.00000000000E+00  0.00000000000E+00  0.11999999989E+02  0.12000000000E+02  0.51109989000E-03 0. -1.
     -623   -1    0    0    0    0  0.00000000000E+00  0.00000000000E+00  0.42561509872E-11  0.25126700000E+02  0.25126700000E+02 0. -1.
      622    2    1    2    0    0 -0.20378127430E-01  0.70457814700E-01  0.10449285798E+02  0.10449975045E+02  0.95000966728E-01 0.  0.
       11    1    1    2    0    0  0.14989515151E-02 -0.73652339216E-01  0.15482658687E+01  0.15500175403E+01  0.51109989000E-03 0. -1.
     -623    1    1    2    0    0  0.18879175915E-01  0.31945245157E-02  0.24483227449E-02  0.25126707415E+02  0.25126700000E+02 0. -1.
     -611    1    3    3    0    0  0.63561173957E-02  0.39254230578E-01  0.89474826364E+01  0.89475765894E+01  0.10000000000E-01 0. -1.
      611    1    3    3    0    0 -0.26734244826E-01  0.31203584122E-01  0.15018031612E+01  0.15023984553E+01  0.10000000000E-01 0.  1.
</event>
<event>
 7   0  0.6206631E-02  0.9118800E+02  0.7818608E-02  0.1180000E+00
       11   -1    0    0    0    0  0.00000000000E+00  0.00000000000E+00  0.11999999989E+02  0.12000000000E+02  0.51109989000E-03 0.  1.
     -623   -1    0    0    0    0  0.00000000000E+00  0.00000000000E+00  0.42561509872E-11  0.25126700000E+02  0.25126700000E+02 0. -1.
      622    2    1    2    0    0 -0.25774761158E-01  0.12935857014E-01  0.46001488914E+01  0.46011856955E+01  0.93318311386E-01 0.  0.
       11    1    1    2    0    0  0.29223261672E-01 -0.13963676780E-01  0.73987431158E+01  0.73988140224E+01  0.51109989000E-03 0.  1.
     -623    1    1    2    0    0 -0.34485005137E-02  0.10278197659E-02  0.11079819745E-02  0.25126700282E+02  0.25126700000E+02 0. -1.
     -611    1    3    3    0    0 -0.12710058930E-01 -0.39417643629E-01  0.18698437528E+01  0.18703291037E+01  0.10000000000E-01 0. -1.
      611    1    3    3    0    0 -0.13064702229E-01  0.52353500643E-01  0.27303051385E+01  0.27308565918E+01  0.10000000000E-01 0.  1.
</event>
<event>
 7   0  0.6206631E-02  0.9118800E+02  0.7818608E-02  0.1180000E+00
       11   -1    0    0    0    0  0.00000000000E+00  0.00000000000E+00  0.11999999989E+02  0.12000000000E+02  0.51109989000E-03 0.  1.
     -623   -1    0    0    0    0  0.00000000000E+00  0.00000000000E+00  0.42561509872E-11  0.25126700000E+02  0.25126700000E+02 0.  1.
      622    2    1    2    0    0 -0.20471728899E-01 -0.93014002276E-02  0.10854885971E+02  0.10855417114E+02  0.10500320718E+00 0.  0.
       11    1    1    2    0    0  0.27292867020E-01  0.42858794133E-02  0.11442478548E+01  0.11445814448E+01  0.51109989000E-03 0.  1.
     -623    1    1    2    0    0 -0.68211381205E-02  0.50155208143E-02  0.86616375577E-03  0.25126701441E+02  0.25126700000E+02 0.  1.
     -611    1    3    3    0    0 -0.42361789384E-01  0.15544328335E-02  0.19271187256E+01  0.19276108321E+01  0.10000000000E-01 0. -1.
      611    1    3    3    0    0  0.21890060485E-01 -0.10855833061E-01  0.89277672450E+01  0.89278062817E+01  0.10000000000E-01 0.  1.
</event>
<event>
 7   0  0.6206631E-02  0.9118800E+02  0.7818608E-02  0.1180000E+00
       11   -1    0    0    0    0  0.00000000000E+00  0.00000000000E+00  0.11999999989E+02  0.12000000000E+02  0.51109989000E-03 0. -1.
     -623   -1    0    0    0    0  0.00000000000E+00  0.00000000000E+00  0.42561509872E-11  0.25126700000E+02  0.25126700000E+02 0.  1.
      622    2    1    2    0    0 -0.18135002132E-02 -0.40889089619E-01  0.86754936038E+01  0.86760012055E+01  0.84453779430E-01 0.  0.
       11    1    1    2    0    0  0.33121657060E-02  0.39279832042E-01  0.33237649039E+01  0.33239986873E+01  0.51109989000E-03 0. -1.
     -623    1    1    2    0    0 -0.14986654928E-02  0.16092575778E-02  0.74148134533E-03  0.25126700107E+02  0.25126700000E+02 0.  1.
     -611    1    3    3    0    0  0.28408999897E-01  0.10051720253E-01  0.39123993424E+01  0.39125281753E+01  0.10000000000E-01 0.  1.
      611    1    3    3    0    0 -0.30222500111E-01 -0.50940809872E-01  0.47630942615E+01  0.47634730302E+01  0.10000000000E-01 0. -1.
</event>
<event>
 6   0  0.6206631E-02  0.9118800E+02  0.7818608E-02  0.1180000E+00
       11   -1    0    0    0    0  0.00000000000E+00  0.00000000000E+00  0.11999999989E+02  0.12000000000E+02  0.51109989000E-03 0. -1.
     -623   -1    0    0    0    0  0.00000000000E+00  0.00000000000E+00  0.42561509872E-11  0.25126700000E+02  0.25126700000E+02 0.  1.
       11    1    1    2    0    0  0.54233610504E-02  0.10823304094E-01  0.66598846795E-02  0.13826497881E-01  0.51109989000E-03 0. -1.
     -623    1    1    2    0    0 -0.95284572616E-02 -0.20107649014E-01  0.11179077412E-01  0.25126712339E+02  0.25126700000E+02 0.  1.
     -611    1    1    2    0    0  0.13456618992E-01 -0.11710931833E+00  0.95080015740E+01  0.95087375400E+01  0.10000000000E-01 0.  1.
      611    1    1    2    0    0 -0.93515227809E-02  0.12639366325E+00  0.24741594530E+01  0.24774236231E+01  0.10000000000E-01 0. -1.
</event>
<event>
 7   0  0.6206631E-02  0.9118800E+02  0.7818608E-02  0.1180000E+00
       11   -1    0    0    0    0  0.00000000000E+00  0.00000000000E+00  0.11999999989E+02  0.12000000000E+02  0.51109989000E-03 0. -1.
     -623   -1    0    0    0    0  0.00000000000E+00  0.00000000000E+00  0.42561509872E-11  0.25126700000E+02  0.25126700000E+02 0.  1.
      622    2    1    2    0    0 -0.24241366107E-02  0.12337625358E-01  0.11897742288E+02  0.11898180104E+02  0.10129235585E+00 0.  0.
       11    1    1    2    0    0  0.80304032011E-02 -0.16543542586E-02  0.10148504109E+00  0.10181698803E+00  0.51109989000E-03 0. -1.
     -623    1    1    2    0    0 -0.56062665904E-02 -0.10683271100E-01  0.77266047897E-03  0.25126702908E+02  0.25126700000E+02 0.  1.
     -611    1    3    3    0    0 -0.12844846990E-01 -0.11100116537E-01  0.47950198663E+00  0.47990661369E+00  0.10000000000E-01 0. -1.
      611    1    3    3    0    0  0.10420710379E-01  0.23437741895E-01  0.11418240301E+02  0.11418273490E+02  0.10000000000E-01 0. -1.
</event>
<event>
 7   0  0.6206631E-02  0.9118800E+02  0.7818608E-02  0.1180000E+00
       11   -1    0    0    0    0  0.00000000000E+00  0.00000000000E+00  0.11999999989E+02  0.12000000000E+02  0.51109989000E-03 0. -1.
     -623   -1    0    0    0    0  0.00000000000E+00  0.00000000000E+00  0.42561509872E-11  0.25126700000E+02  0.25126700000E+02 0.  1.
      622    2    1    2    0    0 -0.24569485026E-01 -0.21123485301E-01  0.11974297065E+02  0.11974690756E+02  0.91534941982E-01 0.  0.
       11    1    1    2    0    0  0.11489078614E-01  0.26566646562E-02  0.22376616026E-01  0.25298833222E-01  0.51109989000E-03 0. -1.
     -623    1    1    2    0    0  0.13080406412E-01  0.18466820645E-01  0.33263084927E-02  0.25126710411E+02  0.25126700000E+02 0.  1.
     -611    1    3    3    0    0 -0.31115846243E-01 -0.13815430419E-02  0.14522523526E+01  0.14526207351E+01  0.10000000000E-01 0.  1.
      611    1    3    3    0    0  0.65463612170E-02 -0.19741942259E-01  0.10522044712E+02  0.10522070021E+02  0.10000000000E-01 0. -1.
</event>
<event>
 7   0  0.6206631E-02  0.9118800E+02  0.7818608E-02  0.1180000E+00
       11   -1    0    0    0    0  0.00000000000E+00  0.00000000000E+00  0.11999999989E+02  0.12000000000E+02  0.51109989000E-03 0. -1.
     -623   -1    0    0    0    0  0.00000000000E+00  0.00000000000E+00  0.42561509872E-11  0.25126700000E+02  0.25126700000E+02 0. -1.
      622    2    1    2    0    0  0.72214974720E-02 -0.21965057895E-02  0.83805944774E+01  0.83807739116E+01  0.54319313576E-01 0.  0.
       11    1    1    2    0    0 -0.64294477945E-02  0.28882125772E-02  0.36192191662E+01  0.36192260656E+01  0.51109989000E-03 0. -1.
     -623    1    1    2    0    0 -0.79204967755E-03 -0.69170678771E-03  0.18634538265E-03  0.25126700023E+02  0.25126700000E+02 0. -1.
     -611    1    3    3    0    0  0.14437864745E-01  0.13407925880E-01  0.16256726679E+01  0.16258228217E+01  0.10000000000E-01 0.  1.
      611    1    3    3    0    0 -0.72163672729E-02 -0.15604431669E-01  0.67549218095E+01  0.67549510899E+01  0.10000000000E-01 0. -1.
</event>
<event>
 7   0  0.6206631E-02  0.9118800E+02  0.7818608E-02  0.1180000E+00
       11   -1    0    0    0    0  0.00000000000E+00  0.00000000000E+00  0.11999999989E+02  0.12000000000E+02  0.51109989000E-03 0. -1.
     -623   -1    0    0    0    0  0.00000000000E+00  0.00000000000E+00  0.42561509872E-11  0.25126700000E+02  0.25126700000E+02 0.  1.
      622    2    1    2    0    0 -0.71315590488E-03 -0.10198909491E-02  0.11959753426E+02  0.11959916544E+02  0.62451345682E-01 0.  0.
       11    1    1    2    0    0 -0.13497900710E-02  0.31349975936E-02  0.39934421294E-01  0.40083280434E-01  0.51109989000E-03 0. -1.
     -623    1    1    2    0    0  0.20629459759E-02 -0.21151066445E-02  0.31214151494E-03  0.25126700176E+02  0.25126700000E+02 0.  1.
     -611    1    3    3    0    0  0.29250908789E-02  0.17071207587E-01  0.14058680236E+01  0.14060102710E+01  0.10000000000E-01 0. -1.
      611    1    3    3    0    0 -0.36382467838E-02 -0.18091098536E-01  0.10553885403E+02  0.10553906273E+02  0.10000000000E-01 0. -1.
</event>
<event>
 7   0  0.6206631E-02  0.9118800E+02  0.7818608E-02  0.1180000E+00
       11   -1    0    0    0    0  0.00000000000E+00  0.00000000000E+00  0.11999999989E+02  0.12000000000E+02  0.51109989000E-03 0.  1.
     -623   -1    0    0    0    0  0.00000000000E+00  0.00000000000E+00  0.42561509872E-11  0.25126700000E+02  0.25126700000E+02 0.  1.
      622    2    1    2    0    0 -0.24141323323E-02  0.28532377252E-02  0.11985041502E+02  0.11985300964E+02  0.78774421919E-01 0.  0.
       11    1    1    2    0    0  0.27848258230E-02 -0.17777082391E-02  0.14313767708E-01  0.14699002366E-01  0.51109989000E-03 0.  1.
     -623    1    1    2    0    0 -0.37069349070E-03 -0.10755294861E-02  0.64471920035E-03  0.25126700034E+02  0.25126700000E+02 0.  1.
     -611    1    3    3    0    0  0.10138745184E-01  0.27591018587E-01  0.99235411737E+01  0.99235897479E+01  0.10000000000E-01 0.  1.
      611    1    3    3    0    0 -0.12552877516E-01 -0.24737780862E-01  0.20615003286E+01  0.20617112158E+01  0.10000000000E-01 0.  1.
</event>
<event>
 7   0  0.6206631E-02  0.9118800E+02  0.7818608E-02  0.1180000E+00
       11   -1    0    0    0    0  0.00000000000E+00  0.00000000000E+00  0.11999999989E+02  0.12000000000E+02  0.51109989000E-03 0. -1.
     -623   -1    0    0    0    0  0.00000000000E+00  0.00000000000E+00  0.42561509872E-11  0.25126700000E+02  0.25126700000E+02 0.  1.
      622    2    1    2    0    0  0.36917254180E-02 -0.72449881446E-03  0.11971111504E+02  0.11971542787E+02  0.10154751115E+00 0.  0.
       11    1    1    2    0    0  0.10744671555E-02 -0.68514551505E-03  0.28423575031E-01  0.28456717041E-01  0.51109989000E-03 0. -1.
     -623    1    1    2    0    0 -0.47661925735E-02  0.14096443295E-02  0.46490963684E-03  0.25126700496E+02  0.25126700000E+02 0.  1.
     -611    1    3    3    0    0  0.25556956626E-01 -0.38910839567E-01  0.36734521450E+01  0.36737607261E+01  0.10000000000E-01 0. -1.
      611    1    3    3    0    0 -0.21865231208E-01  0.38186340753E-01  0.82976593595E+01  0.82977820609E+01  0.10000000000E-01 0. -1.
</event>
<event>
 7   0  0.6206631E-02  0.9118800E+02  0.7818608E-02  0.1180000E+00
       11   -1    0    0    0    0  0.00000000000E+00  0.00000000000E+00  0.11999999989E+02  0.12000000000E+02  0.51109989000E-03 0.  1.
     -623   -1    0    0    0    0  0.00000000000E+00  0.00000000000E+00  0.42561509872E-11  0.25126700000E+02  0.25126700000E+02 0.  1.
      622    2    1    2    0    0  0.38294905160E-02  0.33209897356E-03  0.11971375911E+02  0.11971769521E+02  0.97002498082E-01 0.  0.
       11    1    1    2    0    0  0.99004831716E-03  0.13754726212E-02  0.28174403067E-01  0.28229954515E-01  0.51109989000E-03 0.  1.
     -623    1    1    2    0    0 -0.48195388331E-02 -0.17075715947E-02  0.44967476561E-03  0.25126700524E+02  0.25126700000E+02 0.  1.
     -611    1    3    3    0    0 -0.10338533379E-02 -0.31482470610E-01  0.10304223785E+02  0.10304276783E+02  0.10000000000E-01 0.  1.
      611    1    3    3    0    0  0.48633438538E-02  0.31814569583E-01  0.16671521264E+01  0.16674927380E+01  0.10000000000E-01 0. -1.
</event>
<event>
 7   0  0.6206631E-02  0.9118800E+02  0.7818608E-02  0.1180000E+00
       11   -1    0    0    0    0  0.00000000000E+00  0.00000000000E+00  0.11999999989E+02  0.12000000000E+02  0.51109989000E-03 0. -1.
     -623   -1    0    0    0    0  0.00000000000E+00  0.00000000000E+00  0.42561509872E-11  0.25126700000E+02  0.25126700000E+02 0. -1.
      622    2    1    2    0    0 -0.10648044869E-02  0.52420515149E-04  0.11991167855E+02  0.11991554870E+02  0.96335534987E-01 0.  0.
       11    1    1    2    0    0  0.92372751196E-03  0.16460346548E-02  0.82155458610E-02  0.84450648041E-02  0.51109989000E-03 0. -1.
     -623    1    1    2    0    0  0.14107697497E-03 -0.16984551699E-02  0.61658836267E-03  0.25126700065E+02  0.25126700000E+02 0. -1.
     -611    1    3    3    0    0 -0.38086087783E-01 -0.27740040289E-01  0.52675568022E+01  0.52677770193E+01  0.10000000000E-01 0. -1.
      611    1    3    3    0    0  0.37021283296E-01  0.27792460804E-01  0.67236110526E+01  0.67237778505E+01  0.10000000000E-01 0.  1.
</event>
<event>
 7   0  0.6206631E-02  0.9118800E+02  0.7818608E-02  0.1180000E+00
       11   -1    0    0    0    0  0.00000000000E+00  0.00000000000E+00  0.11999999989E+02  0.12000000000E+02  0.51109989000E-03 0.  1.
     -623   -1    0    0    0    0  0.00000000000E+00  0.00000000000E+00  0.42561509872E-11  0.25126700000E+02  0.25126700000E+02 0. -1.
      622    2    1    2    0    0 -0.24391841429E-02  0.34938369446E-02  0.11895913695E+02  0.11896969541E+02  0.15844076061E+00 0.  0.
       11    1    1    2    0    0  0.33178611583E-02 -0.19494067296E-02  0.10295721272E+00  0.10303037059E+00  0.51109989000E-03 0.  1.
     -623    1    1    2    0    0 -0.87867701540E-03 -0.15444302149E-02  0.11290816274E-02  0.25126700088E+02  0.25126700000E+02 0. -1.
     -611    1    3    3    0    0 -0.42087178772E-01  0.23884689331E-01  0.12745289058E+01  0.12754864722E+01  0.10000000000E-01 0. -1.
      611    1    3    3    0    0  0.39647994629E-01 -0.20390852386E-01  0.10621384789E+02  0.10621483069E+02  0.10000000000E-01 0.  1.
</event>
<event>
 7   0  0.6206631E-02  0.9118800E+02  0.7818608E-02  0.1180000E+00
       11   -1    0    0    0    0  0.00000000000E+00  0.00000000000E+00  0.11999999989E+02  0.12000000000E+02  0.51109989000E-03 0. -1.
     -623   -1    0    0    0    0  0.00000000000E+00  0.00000000000E+00  0.42561509872E-11  0.25126700000E+02  0.25126700000E+02 0. -1.
      622    2    1    2    0    0  0.29281901029E-01  0.10181246128E-01  0.11927346985E+02  0.11927832965E+02  0.10311182426E+00 0.  0.
       11    1    1    2    0    0 -0.30530753669E-01 -0.17035527525E-01  0.63127518237E-01  0.72164263313E-01  0.51109989000E-03 0. -1.
     -623    1    1    2    0    0  0.12488526408E-02  0.68542813969E-02  0.95254854731E-02  0.25126702771E+02  0.25126700000E+02 0. -1.
     -611    1    3    3    0    0  0.29741514624E-01  0.53836049233E-01  0.63240758081E+01  0.63243827924E+01  0.10000000000E-01 0. -1.
      611    1    3    3    0    0 -0.45961359523E-03 -0.43654803105E-01  0.56032711773E+01  0.56034501729E+01  0.10000000000E-01 0.  1.
</event>
<event>
 7   0  0.6206631E-02  0.9118800E+02  0.7818608E-02  0.1180000E+00
       11   -1    0    0    0    0  0.00000000000E+00  0.00000000000E+00  0.11999999989E+02  0.12000000000E+02  0.51109989000E-03 0.  1.
     -623   -1    0    0    0    0  0.00000000000E+00  0.00000000000E+00  0.42561509872E-11  0.25126700000E+02  0.25126700000E+02 0.  1.
      622    2    1    2    0    0 -0.19410469325E-03  0.32287812914E-03  0.11995720872E+02  0.11996203899E+02  0.10765037576E+00 0.  0.
       11    1    1    2    0    0 -0.10117207052E-03 -0.82855512614E-04  0.37592549679E-02  0.37960929742E-02  0.51109989000E-03 0.  1.
     -623    1    1    2    0    0  0.29527676377E-03 -0.24002261652E-03  0.51986229724E-03  0.25126700008E+02  0.25126700000E+02 0.  1.
     -611    1    3    3    0    0 -0.45709292792E-01 -0.11322217006E-01  0.33083643697E+01  0.33087146046E+01  0.10000000000E-01 0.  1.
      611    1    3    3    0    0  0.45515188098E-01  0.11645095135E-01  0.86873565022E+01  0.86874892942E+01  0.10000000000E-01 0.  1.
</event>
<event>
 7   0  0.6206631E-02  0.9118800E+02  0.7818608E-02  0.1180000E+00
       11   -1    0    0    0    0  0.00000000000E+00  0.00000000000E+00  0.11999999989E+02  0.12000000000E+02  0.51109989000E-03 0. -1.
     -623   -1    0    0    0    0  0.00000000000E+00  0.00000000000E+00  0.42561509872E-11  0.25126700000E+02  0.25126700000E+02 0.  1.
      622    2    1    2    0    0  0.32108298500E-02  0.12571787291E-02  0.11972477464E+02  0.11972864256E+02  0.96176842975E-01 0.  0.
       11    1    1    2    0    0 -0.33987981578E-02 -0.34002100576E-02  0.26701468078E-01  0.27135638522E-01  0.51109989000E-03 0. -1.
     -623    1    1    2    0    0  0.18796830781E-03  0.21430313285E-02  0.82105742253E-03  0.25126700106E+02  0.25126700000E+02 0.  1.
     -611    1    3    3    0    0 -0.35957689090E-01  0.28916767096E-01  0.56973370338E+01  0.56975326600E+01  0.10000000000E-01 0. -1.
      611    1    3    3    0    0  0.39168518940E-01 -0.27659588367E-01  0.62751404298E+01  0.62753315960E+01  0.10000000000E-01 0.  1.
</event>
<event>
 7   0  0.6206631E-02  0.9118800E+02  0.7818608E-02  0.1180000E+00
       11   -1    0    0    0    0  0.00000000000E+00  0.00000000000E+00  0.11999999989E+02  0.12000000000E+02  0.51109989000E-03 0. -1.
     -623   -1    0    0    0    0  0.00000000000E+00  0.00000000000E+00  0.42561509872E-11  0.25126700000E+02  0.25126700000E+02 0. -1.
      622    2    1    2    0    0  0.39185534752E-02  0.50147654784E-02  0.11858471898E+02  0.11859029261E+02  0.11479881502E+00 0.  0.
       11    1    1    2    0    0 -0.32145771568E-02 -0.71264276079E-02  0.14075275218E+00  0.14097062795E+00  0.51109989000E-03 0. -1.
     -623    1    1    2    0    0 -0.70397631834E-03  0.21116621295E-02  0.77533901128E-03  0.25126700111E+02  0.25126700000E+02 0. -1.
     -611    1    3    3    0    0  0.40057695382E-01 -0.44257776912E-02  0.17840679928E+01  0.17845511506E+01  0.10000000000E-01 0.  1.
      611    1    3    3    0    0 -0.36139141907E-01  0.94405431696E-02  0.10074403905E+02  0.10074478111E+02  0.10000000000E-01 0. -1.
</event>
<event>
 7   0  0.6206631E-02  0.9118800E+02  0.7818608E-02  0.1180000E+00
       11   -1    0    0    0    0  0.00000000000E+00  0.00000000000E+00  0.11999999989E+02  0.12000000000E+02  0.51109989000E-03 0. -1.
     -623   -1    0    0    0    0  0.00000000000E+00  0.00000000000E+00  0.42561509872E-11  0.25126700000E+02  0.25126700000E+02 0. -1.
      622    2    1    2    0    0 -0.65034597976E-03  0.14409307827E-02  0.11996818561E+02  0.11997306572E+02  0.10819847882E+00 0.  0.
       11    1    1    2    0    0  0.29117919456E-03 -0.17047522255E-02  0.20005483936E-02  0.26933960863E-02  0.51109989000E-03 0. -1.
     -623    1    1    2    0    0  0.35916678520E-03  0.26382144281E-03  0.11808800575E-02  0.25126700032E+02  0.25126700000E+02 0. -1.
     -611    1    3    3    0    0  0.35404484663E-01  0.25331499174E-01  0.94181613486E+01  0.94182672690E+01  0.10000000000E-01 0. -1.
      611    1    3    3    0    0 -0.36054830643E-01 -0.23890568391E-01  0.25786572121E+01  0.25790393032E+01  0.10000000000E-01 0.  1.
</event>
<event>
 7   0  0.6206631E-02  0.9118800E+02  0.7818608E-02  0.1180000E+00
       11   -1    0    0    0    0  0.00000000000E+00  0.00000000000E+00  0.11999999989E+02  0.12000000000E+02  0.51109989000E-03 0.  1.
     -623   -1    0    0    0    0  0.00000000000E+00  0.00000000000E+00  0.42561509872E-11  0.25126700000E+02  0.25126700000E+02 0.  1.
      622    2    1    2    0    0 -0.58211630352E-03  0.58866328725E-02  0.11887779695E+02  0.11888373213E+02  0.11864475261E+00 0.  0.
       11    1    1    2    0    0  0.11960216060E-02 -0.69894794982E-02  0.11140011204E+00  0.11162674177E+00  0.51109989000E-03 0.  1.
     -623    1    1    2    0    0 -0.61390530244E-03  0.11028466257E-02  0.82018167663E-03  0.25126700045E+02  0.25126700000E+02 0.  1.
     -611    1    3    3    0    0 -0.16726078895E-01 -0.41188565082E-01  0.22578896269E+01  0.22583493589E+01  0.10000000000E-01 0.  1.
      611    1    3    3    0    0  0.16143962591E-01  0.47075197954E-01  0.96298900685E+01  0.96300238542E+01  0.10000000000E-01 0.  1.
</event>
<event>
 7   0  0.6206631E-02  0.9118800E+02  0.7818608E-02  0.1180000E+00
       11   -1    0    0    0    0  0.00000000000E+00  0.00000000000E+00  0.11999999989E+02  0.12000000000E+02  0.51109989000E-03 0.  1.
     -623   -1    0    0    0    0  0.00000000000E+00  0.00000000000E+00  0.42561509872E-11  0.25126700000E+02  0.25126700000E+02 0.  1.
      622    2    1    2    0    0  0.12585906254E-01  0.35237178975E-01  0.94240912379E+01  0.94245050578E+01  0.79999129692E-01 0.  0.
       11    1    1    2    0    0 -0.20183561763E-01 -0.36677638189E-01  0.25751534173E+01  0.25754937409E+01  0.51109989000E-03 0.  1.
     -623    1    1    2    0    0  0.75976555089E-02  0.14404592137E-02  0.75533389709E-03  0.25126701201E+02  0.25126700000E+02 0.  1.
     -611    1    3    3    0    0 -0.24123027647E-01  0.41554471376E-01  0.58443163700E+01  0.58445224379E+01  0.10000000000E-01 0.  1.
      611    1    3    3    0    0  0.36708933901E-01 -0.63172924010E-02  0.35797748679E+01  0.35799826199E+01  0.10000000000E-01 0. -1.
</event>
<event>
 7   0  0.6206631E-02  0.9118800E+02  0.7818608E-02  0.1180000E+00
       11   -1    0    0    0    0  0.00000000000E+00  0.00000000000E+00  0.11999999989E+02  0.12000000000E+02  0.51109989000E-03 0.  1.
     -623   -1    0    0    0    0  0.00000000000E+00  0.00000000000E+00  0.42561509872E-11  0.25126700000E+02  0.25126700000E+02 0. -1.
      622    2    1    2    0    0  0.13429375532E-01  0.41866842497E-03  0.10780861631E+02  0.10781455247E+02  0.11233522555E+00 0.  0.
       11    1    1    2    0    0 -0.10863690569E-01  0.29081109248E-02  0.12184923885E+01  0.12185443935E+01  0.51109989000E-03 0.  1.
     -623    1    1    2    0    0 -0.25656849631E-02 -0.33267793497E-02  0.64596918718E-03  0.25126700360E+02  0.25126700000E+02 0. -1.
     -611    1    3    3    0    0  0.27948500385E-01  0.13249436389E-01  0.92744513227E+00  0.92801462252E+00  0.10000000000E-01 0. -1.
      611    1    3    3    0    0 -0.14519124853E-01 -0.12830767964E-01  0.98534164992E+01  0.98534406245E+01  0.10000000000E-01 0.  1.
</event>
<event>
 7   0  0.6206631E-02  0.9118800E+02  0.7818608E-02  0.1180000E+00
       11   -1    0    0    0    0  0.00000000000E+00  0.00000000000E+00  0.11999999989E+02  0.12000000000E+02  0.51109989000E-03 0.  1.
     -623   -1    0    0    0    0  0.00000000000E+00  0.00000000000E+00  0.42561509872E-11  0.25126700000E+02  0.25126700000E+02 0.  1.
      622    2    1    2    0    0  0.39667185783E-01  0.46428210342E-01  0.70676616271E+01  0.70686015814E+01  0.97766958061E-01 0.  0.
       11    1    1    2    0    0 -0.37681566025E-01 -0.47851251824E-01  0.49310220996E+01  0.49313982653E+01  0.51109989000E-03 0.  1.
     -623    1    1    2    0    0 -0.19856197580E-02  0.14230414826E-02  0.13162623906E-02  0.25126700153E+02  0.25126700000E+02 0.  1.
     -611    1    3    3    0    0  0.35212590712E-01  0.75274932735E-01  0.54929713714E+01  0.54936090805E+01  0.10000000000E-01 0. -1.
      611    1    3    3    0    0  0.44545950704E-02 -0.28846722393E-01  0.15746902557E+01  0.15749925010E+01  0.10000000000E-01 0.  1.
</event>
<event>
 7   0  0.6206631E-02  0.9118800E+02  0.7818608E-02  0.1180000E+00
       11   -1    0    0    0    0  0.00000000000E+00  0.00000000000E+00  0.11999999989E+02  0.12000000000E+02  0.51109989000E-03 0.  1.
     -623   -1    0    0    0    0  0.00000000000E+00  0.00000000000E+00  0.42561509872E-11  0.25126700000E+02  0.25126700000E+02 0.  1.
      622    2    1    2    0    0 -0.36809276054E-01 -0.28006316601E-01  0.89273700079E+01  0.89281657603E+01  0.10986040655E+00 0.  0.
       11    1    1    2    0    0  0.30991803500E-01  0.22653699685E-01  0.30715930527E+01  0.30718329747E+01  0.51109989000E-03 0.  1.
     -623    1    1    2    0    0  0.58174725534E-02  0.53526169157E-02  0.10369285124E-02  0.25126701265E+02  0.25126700000E+02 0.  1.
     -611    1    3    3    0    0  0.19419961249E-01  0.10438882537E-01  0.57456191647E+01  0.57456701690E+01  0.10000000000E-01 0. -1.
      611    1    3    3    0    0 -0.56229237302E-01 -0.38445199138E-01  0.31817508433E+01  0.31824955914E+01  0.10000000000E-01 0.  1.
</event>
<event>
 7   0  0.6206631E-02  0.9118800E+02  0.7818608E-02  0.1180000E+00
       11   -1    0    0    0    0  0.00000000000E+00  0.00000000000E+00  0.11999999989E+02  0.12000000000E+02  0.51109989000E-03 0. -1.
     -623   -1    0    0    0    0  0.00000000000E+00  0.00000000000E+00  0.42561509872E-11  0.25126700000E+02  0.25126700000E+02 0. -1.
      622    2    1    2    0    0 -0.77046393874E-02  0.26188523969E-02  0.11840207003E+02  0.11840477981E+02  0.79691474357E-01 0.  0.
       11    1    1    2    0    0  0.60070413542E-02 -0.23260395627E-02  0.15939102323E+00  0.15952195622E+00  0.51109989000E-03 0. -1.
     -623    1    1    2    0    0  0.16975980332E-02 -0.29281283416E-03  0.40196263996E-03  0.25126700062E+02  0.25126700000E+02 0. -1.
     -611    1    3    3    0    0 -0.74358257480E-02 -0.36665857867E-01  0.66433572301E+01  0.66434700996E+01  0.10000000000E-01 0.  1.
      611    1    3    3    0    0 -0.26881363936E-03  0.39284710263E-01  0.51968497731E+01  0.51970078819E+01  0.10000000000E-01 0. -1.
</event>
<event>
 7   0  0.6206631E-02  0.9118800E+02  0.7818608E-02  0.1180000E+00
       11   -1    0    0    0    0  0.00000000000E+00  0.00000000000E+00  0.11999999989E+02  0.12000000000E+02  0.51109989000E-03 0. -1.
     -623   -1    0    0    0    0  0.00000000000E+00  0.00000000000E+00  0.42561509872E-11  0.25126700000E+02  0.25126700000E+02 0.  1.
      622    2    1    2    0    0  0.20196089489E-01 -0.32273098576E-02  0.11796705538E+02  0.11797271647E+02  0.11374734984E+00 0.  0.
       11    1    1    2    0    0  0.54572108472E-02  0.89177231626E-02  0.20244416653E+00  0.20271459918E+00  0.51109989000E-03 0. -1.
     -623    1    1    2    0    0 -0.25653300336E-01 -0.56904133051E-02  0.85028473420E-03  0.25126713754E+02  0.25126700000E+02 0.  1.
     -611    1    3    3    0    0 -0.20037953323E-01  0.12062625959E-01  0.67611575429E+00  0.67659407307E+00  0.10000000000E-01 0.  1.
      611    1    3    3    0    0  0.40234042812E-01 -0.15289935816E-01  0.11120589784E+02  0.11120677574E+02  0.10000000000E-01 0. -1.
</event>
<event>
 7   0  0.6206631E-02  0.9118800E+02  0.7818608E-02  0.1180000E+00
       11   -1    0    0    0    0  0.00000000000E+00  0.00000000000E+00  0.11999999989E+02  0.12000000000E+02  0.51109989000E-03 0. -1.
     -623   -1    0    0    0    0  0.00000000000E+00  0.00000000000E+00  0.42561509872E-11  0.25126700000E+02  0.25126700000E+02 0. -1.
      622    2    1    2    0    0 -0.25872564662E-01 -0.15459939604E-01  0.87005303774E+01  0.87012690615E+01  0.10929791342E+00 0.  0.
       11    1    1    2    0    0  0.23111801852E-01 -0.19965652590E-01  0.32985643688E+01  0.32987057976E+01  0.51109989000E-03 0. -1.
     -623    1    1    2    0    0  0.27607628102E-02  0.35425592194E-01  0.90524289148E-03  0.25126725141E+02  0.25126700000E+02 0. -1.
     -611    1    3    3    0    0 -0.17355411424E-01  0.39737084661E-01  0.19837883922E+01  0.19842874366E+01  0.10000000000E-01 0.  1.
      611    1    3    3    0    0 -0.85171532377E-02 -0.55197024265E-01  0.67167419852E+01  0.67169816249E+01  0.10000000000E-01 0. -1.
</event>
<event>
 7   0  0.6206631E-02  0.9118800E+02  0.7818608E-02  0.1180000E+00
       11   -1    0    0    0    0  0.00000000000E+00  0.00000000000E+00  0.11999999989E+02  0.12000000000E+02  0.51109989000E-03 0.  1.
     -623   -1    0    0    0    0  0.00000000000E+00  0.00000000000E+00  0.42561509872E-11  0.25126700000E+02  0.25126700000E+02 0. -1.
      622    2    1    2    0    0 -0.62230444066E-02  0.51156685848E-02  0.11728221212E+02  0.11729803850E+02  0.19251145740E+00 0.  0.
       11    1    1    2    0    0  0.40110211147E-02 -0.25060989726E-02  0.27015398455E+00  0.27019586491E+00  0.51109989000E-03 0.  1.
     -623    1    1    2    0    0  0.22120232919E-02 -0.26095696122E-02  0.16247927064E-02  0.25126700285E+02  0.25126700000E+02 0. -1.
     -611    1    3    3    0    0 -0.71141833196E-01 -0.30665272006E-01  0.95120996162E+01  0.95124203349E+01  0.10000000000E-01 0.  1.
      611    1    3    3    0    0  0.64918788790E-01  0.35780940591E-01  0.22161215957E+01  0.22173835148E+01  0.10000000000E-01 0. -1.
</event>
<event>
 7   0  0.6206631E-02  0.9118800E+02  0.7818608E-02  0.1180000E+00
       11   -1    0    0    0    0  0.00000000000E+00  0.00000000000E+00  0.11999999989E+02  0.12000000000E+02  0.51109989000E-03 0.  1.
     -623   -1    0    0    0    0  0.00000000000E+00  0.00000000000E+00  0.42561509872E-11  0.25126700000E+02  0.25126700000E+02 0.  1.
      622    2    1    2    0    0 -0.92880996043E-03 -0.49716690072E-01  0.95947575173E+01  0.95955025067E+01  0.10873788945E+00 0.  0.
       11    1    1    2    0    0  0.26643039577E-01  0.39078479344E-01  0.24040167856E+01  0.24044820536E+01  0.51109989000E-03 0.  1.
     -623    1    1    2    0    0 -0.25714229617E-01  0.10638210729E-01  0.12256861251E-02  0.25126715440E+02  0.25126700000E+02 0.  1.
     -611    1    3    3    0    0 -0.21714870003E-01  0.28849356746E-01  0.27494934573E+01  0.27497487327E+01  0.10000000000E-01 0.  1.
      611    1    3    3    0    0  0.20786060042E-01 -0.78566046818E-01  0.68452640600E+01  0.68457537741E+01  0.10000000000E-01 0. -1.
</event>
<event>
 7   0  0.6206631E-02  0.9118800E+02  0.7818608E-02  0.1180000E+00
       11   -1    0    0    0    0  0.00000000000E+00  0.00000000000E+00  0.11999999989E+02  0.12000000000E+02  0.51109989000E-03 0.  1.
     -623   -1    0    0    0    0  0.00000000000E+00  0.00000000000E+00  0.42561509872E-11  0.25126700000E+02  0.25126700000E+02 0.  1.
      622    2    1    2    0    0 -0.52697309382E-01  0.16977233449E-01  0.10126264826E+02  0.10126893713E+02  0.98344874319E-01 0.  0.
       11    1    1    2    0    0  0.49117553763E-01 -0.46919677012E-02  0.18724529433E+01  0.18731029963E+01  0.51109989000E-03 0.  1.
     -623    1    1    2    0    0  0.35797556195E-02 -0.12285265748E-01  0.12822201233E-02  0.25126703291E+02  0.25126700000E+02 0.  1.
     -611    1    3    3    0    0  0.20320045328E-01  0.23715263363E-01  0.17896111258E+01  0.17899115340E+01  0.10000000000E-01 0. -1.
      611    1    3    3    0    0 -0.73017354710E-01 -0.67380299142E-02  0.83366536999E+01  0.83369821787E+01  0.10000000000E-01 0.  1.
</event>
<event>
 7   0  0.6206631E-02  0.9118800E+02  0.7818608E-02  0.1180000E+00
       11   -1    0    0    0    0  0.00000000000E+00  0.00000000000E+00  0.11999999989E+02  0.12000000000E+02  0.51109989000E-03 0.  1.
     -623   -1    0    0    0    0  0.00000000000E+00  0.00000000000E+00  0.42561509872E-11  0.25126700000E+02  0.25126700000E+02 0.  1.
      622    2    1    2    0    0 -0.20864890450E-02 -0.15335577742E-01  0.84876977063E+01  0.84883639775E+01  0.10521943290E+00 0.  0.
       11    1    1    2    0    0  0.29414216088E-02  0.13876897556E-01  0.35116072682E+01  0.35116359560E+01  0.51109989000E-03 0.  1.
     -623    1    1    2    0    0 -0.85493256382E-03  0.14586801863E-02  0.69501471291E-03  0.25126700066E+02  0.25126700000E+02 0.  1.
     -611    1    3    3    0    0  0.10316862844E-01  0.21165261739E-01  0.72106930900E+01  0.72107384673E+01  0.10000000000E-01 0.  1.
      611    1    3    3    0    0 -0.12403351889E-01 -0.36500839482E-01  0.12770046162E+01  0.12776255102E+01  0.10000000000E-01 0. -1.
</event>
<event>
 7   0  0.6206631E-02  0.9118800E+02  0.7818608E-02  0.1180000E+00
       11   -1    0    0    0    0  0.00000000000E+00  0.00000000000E+00  0.11999999989E+02  0.12000000000E+02  0.51109989000E-03 0. -1.
     -623   -1    0    0    0    0  0.00000000000E+00  0.00000000000E+00  0.42561509872E-11  0.25126700000E+02  0.25126700000E+02 0. -1.
      622    2    1    2    0    0 -0.63239172376E-01 -0.78860545594E-01  0.10172846092E+02  0.10173862945E+02  0.10232996843E+00 0.  0.
       11    1    1    2    0    0  0.53564451394E-01  0.86939949484E-01  0.18232761552E+01  0.18261335944E+01  0.51109989000E-03 0. -1.
     -623    1    1    2    0    0  0.96747209816E-02 -0.80794038905E-02  0.38777415168E-02  0.25126703461E+02  0.25126700000E+02 0. -1.
     -611    1    3    3    0    0 -0.38040307054E-01 -0.10127004556E+00  0.77657953333E+01  0.77665552110E+01  0.10000000000E-01 0. -1.
      611    1    3    3    0    0 -0.25198865322E-01  0.22409499962E-01  0.24070507591E+01  0.24073077338E+01  0.10000000000E-01 0.  1.
</event>
<event>
 7   0  0.6206631E-02  0.9118800E+02  0.7818608E-02  0.1180000E+00
       11   -1    0    0    0    0  0.00000000000E+00  0.00000000000E+00  0.11999999989E+02  0.12000000000E+02  0.51109989000E-03 0.  1.
     -623   -1    0    0    0    0  0.00000000000E+00  0.00000000000E+00  0.42561509872E-11  0.25126700000E+02  0.25126700000E+02 0.  1.
      622    2    1    2    0    0 -0.13703445528E-01  0.16472554544E-01  0.50684403823E+01  0.50693649070E+01  0.94411450519E-01 0.  0.
       11    1    1    2    0    0  0.95132320831E-02 -0.24902207595E-01  0.69305820248E+01  0.69306333105E+01  0.51109989000E-03 0.  1.
     -623    1    1    2    0    0  0.41902134450E-02  0.84296530516E-02  0.97758199011E-03  0.25126701782E+02  0.25126700000E+02 0.  1.
     -611    1    3    3    0    0  0.19459017751E-01 -0.28851325229E-01  0.26739626207E+01  0.26742077610E+01  0.10000000000E-01 0.  1.
      611    1    3    3    0    0 -0.33162463279E-01  0.45323879773E-01  0.23944777616E+01  0.23951571460E+01  0.10000000000E-01 0. -1.
</event>
<event>
 7   0  0.6206631E-02  0.9118800E+02  0.7818608E-02  0.1180000E+00
       11   -1    0    0    0    0  0.00000000000E+00  0.00000000000E+00  0.11999999989E+02  0.12000000000E+02  0.51109989000E-03 0.  1.
     -623   -1    0    0    0    0  0.00000000000E+00  0.00000000000E+00  0.42561509872E-11  0.25126700000E+02  0.25126700000E+02 0. -1.
      622    2    1    2    0    0  0.18597571956E-02 -0.14339310950E-03  0.11693150714E+02  0.11693416198E+02  0.78773572848E-01 0.  0.
       11    1    1    2    0    0 -0.13573580167E-02 -0.50505701065E-03  0.30657994068E+00  0.30658378749E+00  0.51109989000E-03 0.  1.
     -623    1    1    2    0    0 -0.50239917883E-03  0.64845012015E-03  0.26933458344E-03  0.25126700015E+02  0.25126700000E+02 0. -1.
     -611    1    3    3    0    0 -0.35211708559E-01  0.41457557067E-02  0.73982073854E+01  0.73982990997E+01  0.10000000000E-01 0.  1.
      611    1    3    3    0    0  0.37071465755E-01 -0.42891488162E-02  0.42949433285E+01  0.42951170980E+01  0.10000000000E-01 0. -1.
</event>
<event>
 7   0  0.6206631E-02  0.9118800E+02  0.7818608E-02  0.1180000E+00
       11   -1    0    0    0    0  0.00000000000E+00  0.00000000000E+00  0.11999999989E+02  0.12000000000E+02  0.51109989000E-03 0. -1.
     -623   -1    0    0    0    0  0.00000000000E+00  0.00000000000E+00  0.42561509872E-11  0.25126700000E+02  0.25126700000E+02 0. -1.
      622    2    1    2    0    0 -0.70596382596E-02 -0.36818651383E-02  0.11751798942E+02  0.11752226135E+02  0.99886727473E-01 0.  0.
       11    1    1    2    0    0 -0.19717176398E-01  0.64810641171E-02  0.24688801404E+00  0.24775940737E+00  0.51109989000E-03 0. -1.
     -623    1    1    2    0    0  0.26776814658E-01 -0.27991989788E-02  0.13130332273E-02  0.25126714458E+02  0.25126700000E+02 0. -1.
     -611    1    3    3    0    0  0.32739543347E-01  0.29702941982E-01  0.65992769398E+01  0.65994325719E+01  0.10000000000E-01 0. -1.
      611    1    3    3    0    0 -0.39799181606E-01 -0.33384807120E-01  0.51525220020E+01  0.51527935628E+01  0.10000000000E-01 0.  1.
</event>
<event>
 7   0  0.6206631E-02  0.9118800E+02  0.7818608E-02  0.1180000E+00
       11   -1    0    0    0    0  0.00000000000E+00  0.00000000000E+00  0.11999999989E+02  0.12000000000E+02  0.51109989000E-03 0. -1.
     -623   -1    0    0    0    0  0.00000000000E+00  0.00000000000E+00  0.42561509872E-11  0.25126700000E+02  0.25126700000E+02 0.  1.
      622    2    1    2    0    0 -0.42700438589E-02  0.86700722898E-02  0.11559407433E+02  0.11560255753E+02  0.13971209279E+00 0.  0.
       11    1    1    2    0    0  0.57644219001E-02 -0.85298231279E-02  0.43962336028E+00  0.43974418310E+00  0.51109989000E-03 0. -1.
     -623    1    1    2    0    0 -0.14943780413E-02 -0.14024916194E-03  0.96919544444E-03  0.25126700064E+02  0.25126700000E+02 0.  1.
     -611    1    3    3    0    0  0.55967541640E-01 -0.19609272234E-01  0.31169763149E+01  0.31175564529E+01  0.10000000000E-01 0. -1.
      611    1    3    3    0    0 -0.60237585499E-01  0.28279344524E-01  0.84424311185E+01  0.84426993005E+01  0.10000000000E-01 0.  1.
</event>
<event>
 7   0  0.6206631E-02  0.9118800E+02  0.7818608E-02  0.1180000E+00
       11   -1    0    0    0    0  0.00000000000E+00  0.00000000000E+00  0.11999999989E+02  0.12000000000E+02  0.51109989000E-03 0. -1.
     -623   -1    0    0    0    0  0.00000000000E+00  0.00000000000E+00  0.42561509872E-11  0.25126700000E+02  0.25126700000E+02 0. -1.
      622    2    1    2    0    0  0.89400462139E-01 -0.40926262444E-01  0.11186649148E+02  0.11187461326E+02  0.92219084268E-01 0.  0.
       11    1    1    2    0    0  0.28989636328E-01 -0.31070120383E-01  0.81104388884E+00  0.81215651339E+00  0.51109989000E-03 0. -1.
     -623    1    1    2    0    0 -0.11839009847E+00  0.71996382827E-01  0.23069523269E-02  0.25127082161E+02  0.25126700000E+02 0. -1.
     -611    1    3    3    0    0  0.20589900321E-01  0.28459220324E-01  0.31691808105E+01  0.31693912477E+01  0.10000000000E-01 0. -1.
      611    1    3    3    0    0  0.68810561818E-01 -0.69385482768E-01  0.80174683375E+01  0.80180700784E+01  0.10000000000E-01 0.  1.
</event>
<event>
 7   0  0.6206631E-02  0.9118800E+02  0.7818608E-02  0.1180000E+00
       11   -1    0    0    0    0  0.00000000000E+00  0.00000000000E+00  0.11999999989E+02  0.12000000000E+02  0.51109989000E-03 0. -1.
     -623   -1    0    0    0    0  0.00000000000E+00  0.00000000000E+00  0.42561509872E-11  0.25126700000E+02  0.25126700000E+02 0. -1.
      622    2    1    2    0    0 -0.96856085652E-02  0.10052951092E-02  0.11899392668E+02  0.11899851138E+02  0.10400201262E+00 0.  0.
       11    1    1    2    0    0  0.17586700485E-01 -0.24874848866E-02  0.98558507138E-01  0.10014749207E+00  0.51109989000E-03 0. -1.
     -623    1    1    2    0    0 -0.79010919197E-02  0.14821897774E-02  0.20488135846E-02  0.25126701369E+02  0.25126700000E+02 0. -1.
     -611    1    3    3    0    0 -0.12986854199E-01 -0.47948733603E-01  0.44109584535E+01  0.44112495075E+01  0.10000000000E-01 0.  1.
      611    1    3    3    0    0  0.33012456337E-02  0.48954028713E-01  0.74884342149E+01  0.74886016309E+01  0.10000000000E-01 0. -1.
</event>
<event>
 7   0  0.6206631E-02  0.9118800E+02  0.7818608E-02  0.1180000E+00
       11   -1    0    0    0    0  0.00000000000E+00  0.00000000000E+00  0.11999999989E+02  0.12000000000E+02  0.51109989000E-03 0. -1.
     -623   -1    0    0    0    0  0.00000000000E+00  0.00000000000E+00  0.42561509872E-11  0.25126700000E+02  0.25126700000E+02 0. -1.
      622    2    1    2    0    0  0.83014811793E-03 -0.34172243335E-02  0.11985634735E+02  0.11986020250E+02  0.96068089385E-01 0.  0.
       11    1    1    2    0    0 -0.14177037810E-02  0.30605417132E-02  0.13557092560E-01  0.13979727515E-01  0.51109989000E-03 0. -1.
     -623    1    1    2    0    0  0.58755566310E-03  0.35668262030E-03  0.80816196444E-03  0.25126700022E+02  0.25126700000E+02 0. -1.
     -611    1    3    3    0    0  0.30401803258E-01 -0.37649397579E-01  0.67233647676E+01  0.67235463518E+01  0.10000000000E-01 0.  1.
      611    1    3    3    0    0 -0.29571655140E-01  0.34232173245E-01  0.52622699670E+01  0.52624738983E+01  0.10000000000E-01 0. -1.
</event>
<event>
 7   0  0.6206631E-02  0.9118800E+02  0.7818608E-02  0.1180000E+00
       11   -1    0    0    0    0  0.00000000000E+00  0.00000000000E+00  0.11999999989E+02  0.12000000000E+02  0.51109989000E-03 0.  1.
     -623   -1    0    0    0    0  0.00000000000E+00  0.00000000000E+00  0.42561509872E-11  0.25126700000E+02  0.25126700000E+02 0.  1.
      622    2    1    2    0    0 -0.28622587719E-01 -0.31982794353E-02  0.11935285113E+02  0.11935928776E+02  0.12056348924E+00 0.  0.
       11    1    1    2    0    0  0.26175127865E-01 -0.23886329788E-02  0.58427920713E-01  0.64069696646E-01  0.51109989000E-03 0.  1.
     -623    1    1    2    0    0  0.24474598541E-02  0.55869124142E-02  0.62869557124E-02  0.25126701527E+02  0.25126700000E+02 0.  1.
     -611    1    3    3    0    0 -0.68750393764E-01 -0.25120147241E-01  0.85661111060E+01  0.85664296599E+01  0.10000000000E-01 0.  1.
      611    1    3    3    0    0  0.40127806045E-01  0.21921867805E-01  0.33691740067E+01  0.33694991166E+01  0.10000000000E-01 0. -1.
</event>
<event>
 7   0  0.6206631E-02  0.9118800E+02  0.7818608E-02  0.1180000E+00
       11   -1    0    0    0    0  0.00000000000E+00  0.00000000000E+00  0.11999999989E+02  0.12000000000E+02  0.51109989000E-03 0. -1.
     -623   -1    0    0    0    0  0.00000000000E+00  0.00000000000E+00  0.42561509872E-11  0.25126700000E+02  0.25126700000E+02 0. -1.
      622    2    1    2    0    0 -0.65279369116E-02  0.10527115059E-01  0.11919217699E+02  0.11919653811E+02  0.10120763539E+00 0.  0.
       11    1    1    2    0    0 -0.37690866605E-02 -0.11051870635E-01  0.79489331226E-01  0.80344040605E-01  0.51109989000E-03 0. -1.
     -623    1    1    2    0    0  0.10297023572E-01  0.52475557526E-03  0.12929591944E-02  0.25126702149E+02  0.25126700000E+02 0. -1.
     -611    1    3    3    0    0 -0.50650046962E-01  0.19512918336E-01  0.58192073226E+01  0.58194690518E+01  0.10000000000E-01 0.  1.
      611    1    3    3    0    0  0.44122110050E-01 -0.89858032770E-02  0.61000103761E+01  0.61001847590E+01  0.10000000000E-01 0. -1.
</event>
<event>
 7   0  0.6206631E-02  0.9118800E+02  0.7818608E-02  0.1180000E+00
       11   -1    0    0    0    0  0.00000000000E+00  0.00000000000E+00  0.11999999989E+02  0.12000000000E+02  0.51109989000E-03 0. -1.
     -623   -1    0    0    0    0  0.00000000000E+00  0.00000000000E+00  0.42561509872E-11  0.25126700000E+02  0.25126700000E+02 0. -1.
      622    2    1    2    0    0 -0.14621396323E-03  0.16790971339E-02  0.11984633050E+02  0.11984986710E+02  0.92055732642E-01 0.  0.
       11    1    1    2    0    0 -0.30879506363E-02 -0.82330290194E-03  0.14660061102E-01  0.15013057033E-01  0.51109989000E-03 0. -1.
     -623    1    1    2    0    0  0.32341645995E-02 -0.85579423193E-03  0.70687783131E-03  0.25126700233E+02  0.25126700000E+02 0. -1.
     -611    1    3    3    0    0 -0.21276228601E-01  0.39246994552E-01  0.73526032394E+01  0.73527455688E+01  0.10000000000E-01 0. -1.
      611    1    3    3    0    0  0.21130014637E-01 -0.37567897419E-01  0.46320298109E+01  0.46322411415E+01  0.10000000000E-01 0.  1.
</event>
<event>
 7   0  0.6206631E-02  0.9118800E+02  0.7818608E-02  0.1180000E+00
       11   -1    0    0    0    0  0.00000000000E+00  0.00000000000E+00  0.11999999989E+02  0.12000000000E+02  0.51109989000E-03 0. -1.
     -623   -1    0    0    0    0  0.00000000000E+00  0.00000000000E+00  0.42561509872E-11  0.25126700000E+02  0.25126700000E+02 0. -1.
      622    2    1    2    0    0 -0.20683599610E-01  0.12979808484E-01  0.11554090017E+02  0.11554462764E+02  0.89539710650E-01 0.  0.
       11    1    1    2    0    0 -0.46407959386E-02  0.15091008330E-02  0.44549327264E+00  0.44552029310E+00  0.51109989000E-03 0. -1.
     -623    1    1    2    0    0  0.25324395549E-01 -0.14488909317E-01  0.41669937082E-03  0.25126716943E+02  0.25126700000E+02 0. -1.
     -611    1    3    3    0    0 -0.10535137966E-01  0.29256102444E-01  0.15265279272E+01  0.15268773432E+01  0.10000000000E-01 0.  1.
      611    1    3    3    0    0 -0.10148461644E-01 -0.16276293960E-01  0.10027562090E+02  0.10027585421E+02  0.10000000000E-01 0. -1.
</event>
<event>
 7   0  0.6206631E-02  0.9118800E+02  0.7818608E-02  0.1180000E+00
       11   -1    0    0    0    0  0.00000000000E+00  0.00000000000E+00  0.11999999989E+02  0.12000000000E+02  0.51109989000E-03 0. -1.
     -623   -1    0    0    0    0  0.00000000000E+00  0.00000000000E+00  0.42561509872E-11  0.25126700000E+02  0.25126700000E+02 0. -1.
      622    2    1    2    0    0 -0.28396027747E-02  0.19927071784E-01  0.10653510358E+02  0.10654155870E+02  0.11553872531E+00 0.  0.
       11    1    1    2    0    0  0.32395604718E-02 -0.23149012199E-01  0.13456408091E+01  0.13458439062E+01  0.51109989000E-03 0. -1.
     -623    1    1    2    0    0 -0.39995769711E-03  0.32219404149E-02  0.84882204603E-03  0.25126700224E+02  0.25126700000E+02 0. -1.
     -611    1    3    3    0    0 -0.31162859124E-01 -0.27536605123E-01  0.19719119792E+01  0.19723757863E+01  0.10000000000E-01 0.  1.
      611    1    3    3    0    0  0.28323256349E-01  0.47463676907E-01  0.86815983788E+01  0.86817800835E+01  0.10000000000E-01 0. -1.
</event>
<event>
 7   0  0.6206631E-02  0.9118800E+02  0.7818608E-02  0.1180000E+00
       11   -1    0    0    0    0  0.00000000000E+00  0.00000000000E+00  0.11999999989E+02  0.12000000000E+02  0.51109989000E-03 0. -1.
     -623   -1    0    0    0    0  0.00000000000E+00  0.00000000000E+00  0.42561509872E-11  0.25126700000E+02  0.25126700000E+02 0.  1.
      622    2    1    2    0    0  0.49656617121E-04  0.30800333755E-02  0.11977130992E+02  0.11977596114E+02  0.10551008562E+00 0.  0.
       11    1    1    2    0    0 -0.41578725465E-02  0.26275450828E-03  0.22006595882E-01  0.22403312914E-01  0.51109989000E-03 0. -1.
     -623    1    1    2    0    0  0.41082159293E-02 -0.33427878838E-02  0.86240101604E-03  0.25126700573E+02  0.25126700000E+02 0.  1.
     -611    1    3    3    0    0 -0.49471634174E-01  0.15489315836E-01  0.53256653325E+01  0.53259270175E+01  0.10000000000E-01 0. -1.
      611    1    3    3    0    0  0.49521290791E-01 -0.12409282460E-01  0.66514656597E+01  0.66516690966E+01  0.10000000000E-01 0.  1.
</event>
<event>
 7   0  0.6206631E-02  0.9118800E+02  0.7818608E-02  0.1180000E+00
       11   -1    0    0    0    0  0.00000000000E+00  0.00000000000E+00  0.11999999989E+02  0.12000000000E+02  0.51109989000E-03 0. -1.
     -623   -1    0    0    0    0  0.00000000000E+00  0.00000000000E+00  0.42561509872E-11  0.25126700000E+02  0.25126700000E+02 0. -1.
      622    2    1    2    0    0 -0.11042720579E-02  0.27954036087E-01  0.10872943044E+02  0.10873562980E+02  0.11268894214E+00 0.  0.
       11    1    1    2    0    0 -0.67952703685E-02 -0.99842861221E-02  0.11263644803E+01  0.11264293432E+01  0.51109989000E-03 0. -1.
     -623    1    1    2    0    0  0.78995424264E-02 -0.17969749965E-01  0.69246521338E-03  0.25126707677E+02  0.25126700000E+02 0. -1.
     -611    1    3    3    0    0 -0.44403035917E-01 -0.16548759917E-01  0.32541253457E+01  0.32544857131E+01  0.10000000000E-01 0. -1.
      611    1    3    3    0    0  0.43298763859E-01  0.44502796004E-01  0.76188176979E+01  0.76190772667E+01  0.10000000000E-01 0.  1.
</event>
<event>
 7   0  0.6206631E-02  0.9118800E+02  0.7818608E-02  0.1180000E+00
       11   -1    0    0    0    0  0.00000000000E+00  0.00000000000E+00  0.11999999989E+02  0.12000000000E+02  0.51109989000E-03 0. -1.
     -623   -1    0    0    0    0  0.00000000000E+00  0.00000000000E+00  0.42561509872E-11  0.25126700000E+02  0.25126700000E+02 0. -1.
      622    2    1    2    0    0 -0.77572598517E-02 -0.43547473946E-02  0.11852674046E+02  0.11853128689E+02  0.10343369426E+00 0.  0.
       11    1    1    2    0    0  0.64868197042E-02  0.49347803558E-02  0.14664404467E+00  0.14687126318E+00  0.51109989000E-03 0. -1.
     -623    1    1    2    0    0  0.12704401475E-02 -0.58003296119E-03  0.68189830205E-03  0.25126700048E+02  0.25126700000E+02 0. -1.
     -611    1    3    3    0    0 -0.50187568009E-01  0.10942901526E-01  0.81222415928E+01  0.81224101737E+01  0.10000000000E-01 0. -1.
      611    1    3    3    0    0  0.42430308158E-01 -0.15297648920E-01  0.37304324534E+01  0.37307185150E+01  0.10000000000E-01 0.  1.
</event>
<event>
 7   0  0.6206631E-02  0.9118800E+02  0.7818608E-02  0.1180000E+00
       11   -1    0    0    0    0  0.00000000000E+00  0.00000000000E+00  0.11999999989E+02  0.12000000000E+02  0.51109989000E-03 0. -1.
     -623   -1    0    0    0    0  0.00000000000E+00  0.00000000000E+00  0.42561509872E-11  0.25126700000E+02  0.25126700000E+02 0. -1.
      622    2    1    2    0    0  0.39680153731E-02  0.18062422272E-03  0.11855101284E+02  0.11855444514E+02  0.90124353465E-01 0.  0.
       11    1    1    2    0    0 -0.26071507628E-02 -0.11918016114E-02  0.14452609539E+00  0.14455542569E+00  0.51109989000E-03 0. -1.
     -623    1    1    2    0    0 -0.13608646103E-02  0.10111773887E-02  0.37260964946E-03  0.25126700060E+02  0.25126700000E+02 0. -1.
     -611    1    3    3    0    0  0.33712645971E-01  0.19984743086E-01  0.30902492461E+01  0.30905139274E+01  0.10000000000E-01 0. -1.
      611    1    3    3    0    0 -0.29744630598E-01 -0.19804118864E-01  0.87648520380E+01  0.87649305870E+01  0.10000000000E-01 0. -1.
</event>
<event>
 7   0  0.6206631E-02  0.9118800E+02  0.7818608E-02  0.1180000E+00
       11   -1    0    0    0    0  0.00000000000E+00  0.00000000000E+00  0.11999999989E+02  0.12000000000E+02  0.51109989000E-03 0. -1.
     -623   -1    0    0    0    0  0.00000000000E+00  0.00000000000E+00  0.42561509872E-11  0.25126700000E+02  0.25126700000E+02 0. -1.
      622    2    1    2    0    0  0.14220815092E-01  0.94192609364E-02  0.92149839825E+01  0.92155906104E+01  0.10435299553E+00 0.  0.
       11    1    1    2    0    0 -0.12822300506E-01 -0.10452000174E-01  0.27843601328E+01  0.27844093209E+01  0.51109989000E-03 0. -1.
     -623    1    1    2    0    0 -0.13985145861E-02  0.10327392372E-02  0.65587382780E-03  0.25126700069E+02  0.25126700000E+02 0. -1.
     -611    1    3    3    0    0  0.24587960730E-01  0.25860477433E-01  0.11900653975E+01  0.11906422563E+01  0.10000000000E-01 0.  1.
      611    1    3    3    0    0 -0.10367145639E-01 -0.16441216497E-01  0.80249185849E+01  0.80249483541E+01  0.10000000000E-01 0. -1.
</event>
<event>
 7   0  0.6206631E-02  0.9118800E+02  0.7818608E-02  0.1180000E+00
       11   -1    0    0    0    0  0.00000000000E+00  0.00000000000E+00  0.11999999989E+02  0.12000000000E+02  0.51109989000E-03 0. -1.
     -623   -1    0    0    0    0  0.00000000000E+00  0.00000000000E+00  0.42561509872E-11  0.25126700000E+02  0.25126700000E+02 0. -1.
      622    2    1    2    0    0 -0.30087508268E-02  0.87518668260E-04  0.11985648625E+02  0.11986206425E+02  0.11559596239E+00 0.  0.
       11    1    1    2    0    0 -0.90080002032E-02  0.94536001516E-02  0.43935456666E-02  0.13786917355E-01  0.51109989000E-03 0. -1.
     -623    1    1    2    0    0  0.12016751030E-01 -0.95411188198E-02  0.99578183482E-02  0.25126706658E+02  0.25126700000E+02 0. -1.
     -611    1    3    3    0    0 -0.32603476452E-02 -0.39777008973E-03  0.11895262494E+02  0.11895267151E+02  0.10000000000E-01 0. -1.
      611    1    3    3    0    0  0.25159681839E-03  0.48528875799E-03  0.90386131041E-01  0.90939273643E-01  0.10000000000E-01 0. -1.
</event>
<event>
 7   0  0.6206631E-02  0.9118800E+02  0.7818608E-02  0.1180000E+00
       11   -1    0    0    0    0  0.00000000000E+00  0.00000000000E+00  0.11999999989E+02  0.12000000000E+02  0.51109989000E-03 0. -1.
     -623   -1    0    0    0    0  0.00000000000E+00  0.00000000000E+00  0.42561509872E-11  0.25126700000E+02  0.25126700000E+02 0.  1.
      622    2    1    2    0    0 -0.29240632600E-01  0.17195615101E-01  0.11924646943E+02  0.11925197745E+02  0.10947985705E+00 0.  0.
       11    1    1    2    0    0 -0.18349907505E-01  0.15214817398E-01  0.70830644666E-01  0.74735876397E-01  0.51109989000E-03 0. -1.
     -623    1    1    2    0    0  0.47590540105E-01 -0.32410432499E-01  0.45224013422E-02  0.25126766378E+02  0.25126700000E+02 0.  1.
     -611    1    3    3    0    0  0.59145283392E-02  0.57760022754E-01  0.70066991863E+01  0.70069468878E+01  0.10000000000E-01 0.  1.
      611    1    3    3    0    0 -0.35155160940E-01 -0.40564407653E-01  0.49179477568E+01  0.49182508573E+01  0.10000000000E-01 0. -1.
</event>
<event>
 7   0  0.6206631E-02  0.9118800E+02  0.7818608E-02  0.1180000E+00
       11   -1    0    0    0    0  0.00000000000E+00  0.00000000000E+00  0.11999999989E+02  0.12000000000E+02  0.51109989000E-03 0. -1.
     -623   -1    0    0    0    0  0.00000000000E+00  0.00000000000E+00  0.42561509872E-11  0.25126700000E+02  0.25126700000E+02 0. -1.
      622    2    1    2    0    0 -0.13572873396E-02 -0.13186418923E-02  0.11982646413E+02  0.11983221588E+02  0.11739240998E+00 0.  0.
       11    1    1    2    0    0 -0.14626455860E-03 -0.10464548827E-03  0.16769569702E-01  0.16778320392E-01  0.51109989000E-03 0. -1.
     -623    1    1    2    0    0  0.15035518982E-02  0.14232873806E-02  0.58400651023E-03  0.25126700092E+02  0.25126700000E+02 0. -1.
     -611    1    3    3    0    0 -0.39665317009E-01 -0.34121896203E-01  0.33633146026E+01  0.33637364281E+01  0.10000000000E-01 0.  1.
      611    1    3    3    0    0  0.38308029669E-01  0.32803254311E-01  0.86193318103E+01  0.86194851595E+01  0.10000000000E-01 0. -1.
</event>
<event>
 6   0  0.6206631E-02  0.9118800E+02  0.7818608E-02  0.1180000E+00
       11   -1    0    0    0    0  0.00000000000E+00  0.00000000000E+00  0.11999999989E+02  0.12000000000E+02  0.51109989000E-03 0.  1.
     -623   -1    0    0    0    0  0.00000000000E+00  0.00000000000E+00  0.42561509872E-11  0.25126700000E+02  0.25126700000E+02 0.  1.
       11    1    1    2    0    0 -0.75424743593E-01  0.48721236449E-01  0.22598786523E+01  0.22616618746E+01  0.51109989000E-03 0.  1.
     -623    1    1    2    0    0  0.45891306443E-01 -0.21775121005E-02  0.57655012323E-02  0.25126742664E+02  0.25126700000E+02 0.  1.
     -611    1    1    2    0    0 -0.77116576489E-01  0.99073279144E-02  0.76646456915E+01  0.76650465555E+01  0.10000000000E-01 0.  1.
      611    1    1    2    0    0  0.10665001364E+00 -0.56451052263E-01  0.20697101440E+01  0.20732489062E+01  0.10000000000E-01 0. -1.
</event>
<event>
 7   0  0.6206631E-02  0.9118800E+02  0.7818608E-02  0.1180000E+00
       11   -1    0    0    0    0  0.00000000000E+00  0.00000000000E+00  0.11999999989E+02  0.12000000000E+02  0.51109989000E-03 0.  1.
     -623   -1    0    0    0    0  0.00000000000E+00  0.00000000000E+00  0.42561509872E-11  0.25126700000E+02  0.25126700000E+02 0.  1.
      622    2    1    2    0    0 -0.28036304713E-01  0.31717055400E-01  0.10242764902E+02  0.10243340664E+02  0.10001562232E+00 0.  0.
       11    1    1    2    0    0 -0.23474630109E-01 -0.41289183446E-02  0.17564295891E+01  0.17565913779E+01  0.51109989000E-03 0.  1.
     -623    1    1    2    0    0  0.51510934822E-01 -0.27588137056E-01  0.80549849497E-03  0.25126767958E+02  0.25126700000E+02 0.  1.
     -611    1    3    3    0    0 -0.56443187453E-02  0.49455432982E-01  0.91913545982E+01  0.91914948212E+01  0.10000000000E-01 0.  1.
      611    1    3    3    0    0 -0.22391985967E-01 -0.17738377582E-01  0.10514103034E+01  0.10518458429E+01  0.10000000000E-01 0. -1.
</event>
<event>
 7   0  0.6206631E-02  0.9118800E+02  0.7818608E-02  0.1180000E+00
       11   -1    0    0    0    0  0.00000000000E+00  0.00000000000E+00  0.11999999989E+02  0.12000000000E+02  0.51109989000E-03 0. -1.
     -623   -1    0    0    0    0  0.00000000000E+00  0.00000000000E+00  0.42561509872E-11  0.25126700000E+02  0.25126700000E+02 0.  1.
      622    2    1    2    0    0 -0.37368573171E-02 -0.37144096068E-02  0.11835741442E+02  0.11836341616E+02  0.11907813531E+00 0.  0.
       11    1    1    2    0    0  0.18850286431E-02  0.35691801317E-02  0.16360772526E+00  0.16365830675E+00  0.51109989000E-03 0. -1.
     -623    1    1    2    0    0  0.18518286741E-02  0.14522947514E-03  0.65082146252E-03  0.25126700077E+02  0.25126700000E+02 0.  1.
     -611    1    3    3    0    0  0.30359997061E-01  0.40129386922E-01  0.82168793561E+01  0.82170395186E+01  0.10000000000E-01 0. -1.
      611    1    3    3    0    0 -0.34096854378E-01 -0.43843796528E-01  0.36188620863E+01  0.36193020976E+01  0.10000000000E-01 0.  1.
</event>
<event>
 7   0  0.6206631E-02  0.9118800E+02  0.7818608E-02  0.1180000E+00
       11   -1    0    0    0    0  0.00000000000E+00  0.00000000000E+00  0.11999999989E+02  0.12000000000E+02  0.51109989000E-03 0. -1.
     -623   -1    0    0    0    0  0.00000000000E+00  0.00000000000E+00  0.42561509872E-11  0.25126700000E+02  0.25126700000E+02 0.  1.
      622    2    1    2    0    0  0.15180947686E-01 -0.46650584162E-03  0.11714233876E+02  0.11714397451E+02  0.60013831885E-01 0.  0.
       11    1    1    2    0    0 -0.15047640809E-01 -0.15207267429E-02  0.28520126577E+00  0.28560246380E+00  0.51109989000E-03 0. -1.
     -623    1    1    2    0    0 -0.13330687627E-03  0.19872325845E-02  0.56484744660E-03  0.25126700085E+02  0.25126700000E+02 0.  1.
     -611    1    3    3    0    0  0.15614653382E-01  0.16618724737E-01  0.21671472740E+01  0.21672903143E+01  0.10000000000E-01 0.  1.
      611    1    3    3    0    0 -0.43370569620E-03 -0.17085230579E-01  0.95470866020E+01  0.95471071367E+01  0.10000000000E-01 0. -1.
</event>
<event>
 7   0  0.6206631E-02  0.9118800E+02  0.7818608E-02  0.1180000E+00
       11   -1    0    0    0    0  0.00000000000E+00  0.00000000000E+00  0.11999999989E+02  0.12000000000E+02  0.51109989000E-03 0.  1.
     -623   -1    0    0    0    0  0.00000000000E+00  0.00000000000E+00  0.42561509872E-11  0.25126700000E+02  0.25126700000E+02 0. -1.
      622    2    1    2    0    0  0.27182107531E-01 -0.38006442445E-03  0.10456644211E+02  0.10457559107E+02  0.13562932151E+00 0.  0.
       11    1    1    2    0    0  0.15439600147E-01  0.26525845045E-01  0.15420856229E+01  0.15423911084E+01  0.51109989000E-03 0.  1.
     -623    1    1    2    0    0 -0.42621707679E-01 -0.26145780621E-01  0.12701549295E-02  0.25126749784E+02  0.25126700000E+02 0. -1.
     -611    1    3    3    0    0 -0.41011545748E-01 -0.32739541795E-01  0.26172582326E+01  0.26178033694E+01  0.10000000000E-01 0. -1.
      611    1    3    3    0    0  0.68193653280E-01  0.32359477371E-01  0.78393859787E+01  0.78397557381E+01  0.10000000000E-01 0.  1.
</event>
<event>
 7   0  0.6206631E-02  0.9118800E+02  0.7818608E-02  0.1180000E+00
       11   -1    0    0    0    0  0.00000000000E+00  0.00000000000E+00  0.11999999989E+02  0.12000000000E+02  0.51109989000E-03 0.  1.
     -623   -1    0    0    0    0  0.00000000000E+00  0.00000000000E+00  0.42561509872E-11  0.25126700000E+02  0.25126700000E+02 0.  1.
      622    2    1    2    0    0  0.11789962279E-02 -0.37701402745E-02  0.11790468125E+02  0.11790739740E+02  0.79933694357E-01 0.  0.
       11    1    1    2    0    0 -0.10021571478E-02  0.89266429609E-03  0.20925516551E+00  0.20926009339E+00  0.51109989000E-03 0.  1.
     -623    1    1    2    0    0 -0.17683908007E-03  0.28774759784E-02  0.27669846854E-03  0.25126700167E+02  0.25126700000E+02 0.  1.
     -611    1    3    3    0    0 -0.12519376518E-01  0.13821677029E-01  0.10598697421E+02  0.10598718544E+02  0.10000000000E-01 0.  1.
      611    1    3    3    0    0  0.13698372746E-01 -0.17591817303E-01  0.11917707047E+01  0.11920211953E+01  0.10000000000E-01 0. -1.
</event>
<event>
 7   0  0.6206631E-02  0.9118800E+02  0.7818608E-02  0.1180000E+00
       11   -1    0    0    0    0  0.00000000000E+00  0.00000000000E+00  0.11999999989E+02  0.12000000000E+02  0.51109989000E-03 0. -1.
     -623   -1    0    0    0    0  0.00000000000E+00  0.00000000000E+00  0.42561509872E-11  0.25126700000E+02  0.25126700000E+02 0. -1.
      622    2    1    2    0    0  0.86127735851E-03 -0.37624421514E-02  0.11966321194E+02  0.11966482658E+02  0.62043369093E-01 0.  0.
       11    1    1    2    0    0  0.23591751605E-03  0.32662723146E-02  0.33353032086E-01  0.33517311414E-01  0.51109989000E-03 0. -1.
     -623    1    1    2    0    0 -0.10971948746E-02  0.49616983682E-03  0.32576304457E-03  0.25126700031E+02  0.25126700000E+02 0. -1.
     -611    1    3    3    0    0 -0.21736905337E-01 -0.98023949265E-02  0.26366945060E+01  0.26368212867E+01  0.10000000000E-01 0.  1.
      611    1    3    3    0    0  0.22598182696E-01  0.60399527751E-02  0.93296266879E+01  0.93296613709E+01  0.10000000000E-01 0. -1.
</event>
<event>
 7   0  0.6206631E-02  0.9118800E+02  0.7818608E-02  0.1180000E+00
       11   -1    0    0    0    0  0.00000000000E+00  0.00000000000E+00  0.11999999989E+02  0.12000000000E+02  0.51109989000E-03 0. -1.
     -623   -1    0    0    0    0  0.00000000000E+00  0.00000000000E+00  0.42561509872E-11  0.25126700000E+02  0.25126700000E+02 0.  1.
      622    2    1    2    0    0  0.42974451862E-01  0.30435220232E-02  0.10895081245E+02  0.10895508617E+02  0.86351650730E-01 0.  0.
       11    1    1    2    0    0 -0.48625606391E-02  0.38347296562E-01  0.11037515954E+01  0.11044283613E+01  0.51109989000E-03 0. -1.
     -623    1    1    2    0    0 -0.38111891222E-01 -0.41390818585E-01  0.11671484657E-02  0.25126763022E+02  0.25126700000E+02 0.  1.
     -611    1    3    3    0    0  0.53521113634E-01 -0.14561524707E-01  0.99202200828E+01  0.99203801862E+01  0.10000000000E-01 0. -1.
      611    1    3    3    0    0 -0.10546661773E-01  0.17605046730E-01  0.97486116253E+00  0.97512843049E+00  0.10000000000E-01 0.  1.
</event>
<event>
 7   0  0.6206631E-02  0.9118800E+02  0.7818608E-02  0.1180000E+00
       11   -1    0    0    0    0  0.00000000000E+00  0.00000000000E+00  0.11999999989E+02  0.12000000000E+02  0.51109989000E-03 0.  1.
     -623   -1    0    0    0    0  0.00000000000E+00  0.00000000000E+00  0.42561509872E-11  0.25126700000E+02  0.25126700000E+02 0.  1.
      622    2    1    2    0    0 -0.17465481936E-01 -0.22743015340E-01  0.86252106727E+01  0.86262269456E+01  0.12926670878E+00 0.  0.
       11    1    1    2    0    0  0.11236911519E-01  0.10263967853E-01  0.33737347964E+01  0.33737691614E+01  0.51109989000E-03 0.  1.
     -623    1    1    2    0    0  0.62285704164E-02  0.12479047487E-01  0.10545201074E-02  0.25126703893E+02  0.25126700000E+02 0.  1.
     -611    1    3    3    0    0 -0.65685499037E-01  0.70681068540E-02  0.60708159024E+01  0.60711835966E+01  0.10000000000E-01 0. -1.
      611    1    3    3    0    0  0.48220017101E-01 -0.29811122194E-01  0.25543947703E+01  0.25550433490E+01  0.10000000000E-01 0.  1.
</event>
<event>
 7   0  0.6206631E-02  0.9118800E+02  0.7818608E-02  0.1180000E+00
       11   -1    0    0    0    0  0.00000000000E+00  0.00000000000E+00  0.11999999989E+02  0.12000000000E+02  0.51109989000E-03 0.  1.
     -623   -1    0    0    0    0  0.00000000000E+00  0.00000000000E+00  0.42561509872E-11  0.25126700000E+02  0.25126700000E+02 0. -1.
      622    2    1    2    0    0  0.12079564187E-01 -0.27680722110E-02  0.11577047223E+02  0.11577642823E+02  0.11677905059E+00 0.  0.
       11    1    1    2    0    0 -0.99726017465E-02  0.47445574040E-02  0.42221228169E+00  0.42235700023E+00  0.51109989000E-03 0.  1.
     -623    1    1    2    0    0 -0.21069624404E-02 -0.19764851929E-02  0.74048427222E-03  0.25126700177E+02  0.25126700000E+02 0. -1.
     -611    1    3    3    0    0 -0.25455201620E-02 -0.29917177971E-01  0.10619185700E+02  0.10619232855E+02  0.10000000000E-01 0.  1.
      611    1    3    3    0    0  0.14625084349E-01  0.27149105760E-01  0.95786152358E+00  0.95840996728E+00  0.10000000000E-01 0. -1.
</event>
<event>
 7   0  0.6206631E-02  0.9118800E+02  0.7818608E-02  0.1180000E+00
       11   -1    0    0    0    0  0.00000000000E+00  0.00000000000E+00  0.11999999989E+02  0.12000000000E+02  0.51109989000E-03 0. -1.
     -623   -1    0    0    0    0  0.00000000000E+00  0.00000000000E+00  0.42561509872E-11  0.25126700000E+02  0.25126700000E+02 0.  1.
      622    2    1    2    0    0 -0.32366569978E-01  0.10424799672E-01  0.10545020349E+02  0.10545506651E+02  0.95394411397E-01 0.  0.
       11    1    1    2    0    0  0.31798006174E-01 -0.11386041423E-01  0.14541010178E+01  0.14544933092E+01  0.51109989000E-03 0. -1.
     -623    1    1    2    0    0  0.56856380408E-03  0.96124175165E-03  0.87862261785E-03  0.25126700040E+02  0.25126700000E+02 0.  1.
     -611    1    3    3    0    0 -0.73380831973E-03  0.43274899819E-01  0.74680982353E+01  0.74682303464E+01  0.10000000000E-01 0. -1.
      611    1    3    3    0    0 -0.31632761658E-01 -0.32850100148E-01  0.30769221134E+01  0.30772763042E+01  0.10000000000E-01 0.  1.
</event>
<event>
 7   0  0.6206631E-02  0.9118800E+02  0.7818608E-02  0.1180000E+00
       11   -1    0    0    0    0  0.00000000000E+00  0.00000000000E+00  0.11999999989E+02  0.12000000000E+02  0.51109989000E-03 0. -1.
     -623   -1    0    0    0    0  0.00000000000E+00  0.00000000000E+00  0.42561509872E-11  0.25126700000E+02  0.25126700000E+02 0. -1.
      622    2    1    2    0    0 -0.36394512632E-03  0.73036381410E-03  0.11998005937E+02  0.11998489755E+02  0.10774631564E+00 0.  0.
       11    1    1    2    0    0 -0.10946600467E-03  0.57611991301E-03  0.12944403457E-02  0.15101973145E-02  0.51109989000E-03 0. -1.
     -623    1    1    2    0    0  0.47341113099E-03 -0.13064837271E-02  0.69961216530E-03  0.25126700048E+02  0.25126700000E+02 0. -1.
     -611    1    3    3    0    0 -0.15169123665E-01  0.44333172244E-02  0.11643177925E+02  0.11643192945E+02  0.10000000000E-01 0. -1.
      611    1    3    3    0    0  0.14805178538E-01 -0.37029534103E-02  0.35482801160E+00  0.35529680971E+00  0.10000000000E-01 0.  1.
</event>
<event>
 7   0  0.6206631E-02  0.9118800E+02  0.7818608E-02  0.1180000E+00
       11   -1    0    0    0    0  0.00000000000E+00  0.00000000000E+00  0.11999999989E+02  0.12000000000E+02  0.51109989000E-03 0.  1.
     -623   -1    0    0    0    0  0.00000000000E+00  0.00000000000E+00  0.42561509872E-11  0.25126700000E+02  0.25126700000E+02 0. -1.
      622    2    1    2    0    0  0.63718957679E-01 -0.62692446141E-01  0.93425404433E+01  0.93435034568E+01  0.10002231700E+00 0.  0.
       11    1    1    2    0    0 -0.20141984918E-01  0.69964637055E-01  0.26554596769E+01  0.26564576238E+01  0.51109989000E-03 0.  1.
     -623    1    1    2    0    0 -0.43576972761E-01 -0.72721909144E-02  0.19998689324E-02  0.25126738919E+02  0.25126700000E+02 0. -1.
     -611    1    3    3    0    0  0.32795091028E-01 -0.61430910156E-01  0.85579337717E+01  0.85582229298E+01  0.10000000000E-01 0.  1.
      611    1    3    3    0    0  0.30923866651E-01 -0.12615359851E-02  0.78460667156E+00  0.78528052698E+00  0.10000000000E-01 0. -1.
</event>
<event>
 7   0  0.6206631E-02  0.9118800E+02  0.7818608E-02  0.1180000E+00
       11   -1    0    0    0    0  0.00000000000E+00  0.00000000000E+00  0.11999999989E+02  0.12000000000E+02  0.51109989000E-03 0.  1.
     -623   -1    0    0    0    0  0.00000000000E+00  0.00000000000E+00  0.42561509872E-11  0.25126700000E+02  0.25126700000E+02 0.  1.
      622    2    1    2    0    0  0.38443147746E-01 -0.13349120613E+00  0.83517791499E+01  0.83548752753E+01  0.18007809331E+00 0.  0.
       11    1    1    2    0    0 -0.46707995454E-01  0.12425031470E+00  0.36427033239E+01  0.36451210603E+01  0.51109989000E-03 0.  1.
     -623    1    1    2    0    0  0.82648477076E-02  0.92408914257E-02  0.55175153273E-02  0.25126703664E+02  0.25126700000E+02 0.  1.
     -611    1    3    3    0    0  0.73217886431E-01 -0.10800134690E+00  0.29356815001E+01  0.29385967774E+01  0.10000000000E-01 0. -1.
      611    1    3    3    0    0 -0.34774738684E-01 -0.25489859227E-01  0.54160976498E+01  0.54162784979E+01  0.10000000000E-01 0.  1.
</event>
<event>
 7   0  0.6206631E-02  0.9118800E+02  0.7818608E-02  0.1180000E+00
       11   -1    0    0    0    0  0.00000000000E+00  0.00000000000E+00  0.11999999989E+02  0.12000000000E+02  0.51109989000E-03 0.  1.
     -623   -1    0    0    0    0  0.00000000000E+00  0.00000000000E+00  0.42561509872E-11  0.25126700000E+02  0.25126700000E+02 0.  1.
      622    2    1    2    0    0 -0.41332865905E-02 -0.76205684586E-02  0.11920766604E+02  0.11921184771E+02  0.99472354713E-01 0.  0.
       11    1    1    2    0    0 -0.36358753610E-02  0.19683999956E-02  0.78703205288E-01  0.78813386769E-01  0.51109989000E-03 0.  1.
     -623    1    1    2    0    0  0.77691619515E-02  0.56521684630E-02  0.53017956915E-03  0.25126701842E+02  0.25126700000E+02 0.  1.
     -611    1    3    3    0    0  0.21137796595E-01 -0.26231282697E-01  0.16908090516E+01  0.16911741884E+01  0.10000000000E-01 0. -1.
      611    1    3    3    0    0 -0.25271083185E-01  0.18610714239E-01  0.10229957553E+02  0.10230010582E+02  0.10000000000E-01 0.  1.
</event>
<event>
 7   0  0.6206631E-02  0.9118800E+02  0.7818608E-02  0.1180000E+00
       11   -1    0    0    0    0  0.00000000000E+00  0.00000000000E+00  0.11999999989E+02  0.12000000000E+02  0.51109989000E-03 0. -1.
     -623   -1    0    0    0    0  0.00000000000E+00  0.00000000000E+00  0.42561509872E-11  0.25126700000E+02  0.25126700000E+02 0. -1.
      622    2    1    2    0    0  0.12171591072E-01  0.14202907737E-02  0.36891077993E+01  0.36900626083E+01  0.83039350328E-01 0.  0.
       11    1    1    2    0    0  0.38461031828E-02  0.10929067948E+00  0.83089686682E+01  0.83096883115E+01  0.51109989000E-03 0. -1.
     -623    1    1    2    0    0 -0.16017694255E-01 -0.11071097026E+00  0.19235216541E-02  0.25126949080E+02  0.25126700000E+02 0. -1.
     -611    1    3    3    0    0  0.31972729522E-01 -0.89694766865E-02  0.70346644666E+00  0.70432077104E+00  0.10000000000E-01 0.  1.
      611    1    3    3    0    0 -0.19801138449E-01  0.10389767460E-01  0.29856413526E+01  0.29857418373E+01  0.10000000000E-01 0. -1.
</event>
<event>
 7   0  0.6206631E-02  0.9118800E+02  0.7818608E-02  0.1180000E+00
       11   -1    0    0    0    0  0.00000000000E+00  0.00000000000E+00  0.11999999989E+02  0.12000000000E+02  0.51109989000E-03 0. -1.
     -623   -1    0    0    0    0  0.00000000000E+00  0.00000000000E+00  0.42561509872E-11  0.25126700000E+02  0.25126700000E+02 0. -1.
      622    2    1    2    0    0  0.52352771491E-01 -0.43109662310E-01  0.69367224944E+01  0.69374799025E+01  0.76871169983E-01 0.  0.
       11    1    1    2    0    0 -0.50506604822E-01  0.25506451003E-01  0.50621976083E+01  0.50625138403E+01  0.51109989000E-03 0. -1.
     -623    1    1    2    0    0 -0.18461666696E-02  0.17603211308E-01  0.10798863630E-02  0.25126706257E+02  0.25126700000E+02 0. -1.
     -611    1    3    3    0    0  0.63638425042E-01 -0.26871917017E-01  0.35570495731E+01  0.35577343373E+01  0.10000000000E-01 0.  1.
      611    1    3    3    0    0 -0.11285653551E-01 -0.16237745293E-01  0.33796729213E+01  0.33797455651E+01  0.10000000000E-01 0. -1.
</event>
<event>
 7   0  0.6206631E-02  0.9118800E+02  0.7818608E-02  0.1180000E+00
       11   -1    0    0    0    0  0.00000000000E+00  0.00000000000E+00  0.11999999989E+02  0.12000000000E+02  0.51109989000E-03 0.  1.
     -623   -1    0    0    0    0  0.00000000000E+00  0.00000000000E+00  0.42561509872E-11  0.25126700000E+02  0.25126700000E+02 0.  1.
      622    2    1    2    0    0 -0.20208313237E-02 -0.27698088821E-02  0.11976350025E+02  0.11976711843E+02  0.93031674953E-01 0.  0.
       11    1    1    2    0    0  0.44870837528E-02 -0.13356355252E-02  0.22806518199E-01  0.23287686411E-01  0.51109989000E-03 0.  1.
     -623    1    1    2    0    0 -0.24662524291E-02  0.41054444073E-02  0.84344588340E-03  0.25126700471E+02  0.25126700000E+02 0.  1.
     -611    1    3    3    0    0  0.11556902899E-01 -0.23347788290E-01  0.11831390544E+01  0.11834680829E+01  0.10000000000E-01 0.  1.
      611    1    3    3    0    0 -0.13577734222E-01  0.20577979408E-01  0.10793210971E+02  0.10793243760E+02  0.10000000000E-01 0.  1.
</event>
<event>
 7   0  0.6206631E-02  0.9118800E+02  0.7818608E-02  0.1180000E+00
       11   -1    0    0    0    0  0.00000000000E+00  0.00000000000E+00  0.11999999989E+02  0.12000000000E+02  0.51109989000E-03 0.  1.
     -623   -1    0    0    0    0  0.00000000000E+00  0.00000000000E+00  0.42561509872E-11  0.25126700000E+02  0.25126700000E+02 0.  1.
      622    2    1    2    0    0  0.20920884982E-02  0.12231450735E-01  0.10671076600E+02  0.10671458877E+02  0.89469306921E-01 0.  0.
       11    1    1    2    0    0  0.22461624587E-02 -0.11247479321E-01  0.13284911171E+01  0.13285407260E+01  0.51109989000E-03 0.  1.
     -623    1    1    2    0    0 -0.43382509568E-02 -0.98397141389E-03  0.43227159325E-03  0.25126700397E+02  0.25126700000E+02 0.  1.
     -611    1    3    3    0    0 -0.36106314485E-01  0.19392147471E-01  0.76423136000E+01  0.76424300378E+01  0.10000000000E-01 0.  1.
      611    1    3    3    0    0  0.38198402983E-01 -0.71606967362E-02  0.30287630004E+01  0.30290288388E+01  0.10000000000E-01 0. -1.
</event>
<event>
 7   0  0.6206631E-02  0.9118800E+02  0.7818608E-02  0.1180000E+00
       11   -1    0    0    0    0  0.00000000000E+00  0.00000000000E+00  0.11999999989E+02  0.12000000000E+02  0.51109989000E-03 0. -1.
     -623   -1    0    0    0    0  0.00000000000E+00  0.00000000000E+00  0.42561509872E-11  0.25126700000E+02  0.25126700000E+02 0. -1.
      622    2    1    2    0    0  0.00000000000E+00  0.00000000000E+00  0.11814648249E+02  0.11814707757E+02  0.37498444198E-01 0.  0.
       11    1    1    2    0    0 -0.18753609132E-03 -0.28263927271E-04  0.18548771701E+00  0.18548851811E+00  0.51109989000E-03 0. -1.
     -623    1    1    2    0    0  0.18753609132E-03  0.28263927271E-04  0.60297925133E-04  0.25126700001E+02  0.25126700000E+02 0. -1.
     -611    1    3    3    0    0 -0.85010138660E-03 -0.12068494410E-01  0.91383419833E+01  0.91383554633E+01  0.10000000000E-01 0. -1.
      611    1    3    3    0    0  0.85010138660E-03  0.12068494410E-01  0.26763062654E+01  0.26763522932E+01  0.10000000000E-01 0.  1.
</event>
<event>
 7   0  0.6206631E-02  0.9118800E+02  0.7818608E-02  0.1180000E+00
       11   -1    0    0    0    0  0.00000000000E+00  0.00000000000E+00  0.11999999989E+02  0.12000000000E+02  0.51109989000E-03 0. -1.
     -623   -1    0    0    0    0  0.00000000000E+00  0.00000000000E+00  0.42561509872E-11  0.25126700000E+02  0.25126700000E+02 0. -1.
      622    2    1    2    0    0  0.22692101333E-02  0.12309172395E-01  0.11866309350E+02  0.11867107916E+02  0.13709863732E+00 0.  0.
       11    1    1    2    0    0 -0.52086557963E-02 -0.95734059533E-02  0.13244308578E+00  0.13289173184E+00  0.51109989000E-03 0. -1.
     -623    1    1    2    0    0  0.29394456630E-02 -0.27357664412E-02  0.12475530724E-02  0.25126700352E+02  0.25126700000E+02 0. -1.
     -611    1    3    3    0    0  0.18337020671E-01  0.15809481460E-01  0.11625861462E+02  0.11625890973E+02  0.10000000000E-01 0. -1.
      611    1    3    3    0    0 -0.16067810538E-01 -0.35003090651E-02  0.24044788795E+00  0.24121694285E+00  0.10000000000E-01 0.  1.
</event>
<event>
 7   0  0.6206631E-02  0.9118800E+02  0.7818608E-02  0.1180000E+00
       11   -1    0    0    0    0  0.00000000000E+00  0.00000000000E+00  0.11999999989E+02  0.12000000000E+02  0.51109989000E-03 0.  1.
     -623   -1    0    0    0    0  0.00000000000E+00  0.00000000000E+00  0.42561509872E-11  0.25126700000E+02  0.25126700000E+02 0. -1.
      622    2    1    2    0    0  0.18288376954E-02  0.24660020267E-01  0.11936323309E+02  0.11936487922E+02  0.57604773856E-01 0.  0.
       11    1    1    2    0    0 -0.58368407468E-02 -0.37035475675E-01  0.51254364429E-01  0.63505639628E-01  0.51109989000E-03 0.  1.
     -623    1    1    2    0    0  0.40080030514E-02  0.12375455408E-01  0.12422315127E-01  0.25126706438E+02  0.25126700000E+02 0. -1.
     -611    1    3    3    0    0 -0.25360170490E-01  0.64530109728E-02  0.60985429788E+01  0.60986073201E+01  0.10000000000E-01 0.  1.
      611    1    3    3    0    0  0.27189008185E-01  0.18207009295E-01  0.58377803306E+01  0.58378806022E+01  0.10000000000E-01 0.  1.
</event>
<event>
 7   0  0.6206631E-02  0.9118800E+02  0.7818608E-02  0.1180000E+00
       11   -1    0    0    0    0  0.00000000000E+00  0.00000000000E+00  0.11999999989E+02  0.12000000000E+02  0.51109989000E-03 0. -1.
     -623   -1    0    0    0    0  0.00000000000E+00  0.00000000000E+00  0.42561509872E-11  0.25126700000E+02  0.25126700000E+02 0.  1.
      622    2    1    2    0    0 -0.38613958017E-01 -0.39404633213E-01  0.11334443421E+02  0.11335299684E+02  0.12793552741E+00 0.  0.
       11    1    1    2    0    0  0.33763860724E-01 -0.85130118242E-02  0.66374116313E+00  0.66465409238E+00  0.51109989000E-03 0. -1.
     -623    1    1    2    0    0  0.48500972930E-02  0.47917645037E-01  0.18154054520E-02  0.25126746224E+02  0.25126700000E+02 0.  1.
     -611    1    3    3    0    0 -0.20070066573E-01  0.19571293325E-01  0.89033772163E+01  0.89034269637E+01  0.10000000000E-01 0. -1.
      611    1    3    3    0    0 -0.18543891443E-01 -0.58975926538E-01  0.24310662043E+01  0.24318727198E+01  0.10000000000E-01 0.  1.
</event>
<event>
 7   0  0.6206631E-02  0.9118800E+02  0.7818608E-02  0.1180000E+00
       11   -1    0    0    0    0  0.00000000000E+00  0.00000000000E+00  0.11999999989E+02  0.12000000000E+02  0.51109989000E-03 0.  1.
     -623   -1    0    0    0    0  0.00000000000E+00  0.00000000000E+00  0.42561509872E-11  0.25126700000E+02  0.25126700000E+02 0.  1.
      622    2    1    2    0    0 -0.22725150277E-01  0.40310851022E-02  0.11538736123E+02  0.11539604111E+02  0.13963893398E+00 0.  0.
       11    1    1    2    0    0  0.14043018163E-01  0.24894340072E-02  0.46017228077E+00  0.46039351956E+00  0.51109989000E-03 0.  1.
     -623    1    1    2    0    0  0.86821321146E-02 -0.65205191095E-02  0.10915852991E-02  0.25126702370E+02  0.25126700000E+02 0.  1.
     -611    1    3    3    0    0 -0.26247100011E-03  0.29729023096E-01  0.10770000041E+02  0.10770045718E+02  0.10000000000E-01 0.  1.
      611    1    3    3    0    0 -0.22462679277E-01 -0.25697937994E-01  0.76873608234E+00  0.76955839302E+00  0.10000000000E-01 0. -1.
</event>
<event>
 7   0  0.6206631E-02  0.9118800E+02  0.7818608E-02  0.1180000E+00
       11   -1    0    0    0    0  0.00000000000E+00  0.00000000000E+00  0.11999999989E+02  0.12000000000E+02  0.51109989000E-03 0. -1.
     -623   -1    0    0    0    0  0.00000000000E+00  0.00000000000E+00  0.42561509872E-11  0.25126700000E+02  0.25126700000E+02 0. -1.
      622    2    1    2    0    0 -0.41747690700E-01  0.58846764066E-02  0.67214654258E+01  0.67232516939E+01  0.14912535380E+00 0.  0.
       11    1    1    2    0    0  0.31992822883E-01 -0.74854029925E-02  0.52766439694E+01  0.52767462904E+01  0.51109989000E-03 0. -1.
     -623    1    1    2    0    0  0.97548678175E-02  0.16007265858E-02  0.18905939331E-02  0.25126702016E+02  0.25126700000E+02 0. -1.
     -611    1    3    3    0    0 -0.49691331541E-01  0.37176277080E-01  0.63348376218E+01  0.63351494851E+01  0.10000000000E-01 0. -1.
      611    1    3    3    0    0  0.79436408413E-02 -0.31291600674E-01  0.38662780396E+00  0.38810220883E+00  0.10000000000E-01 0.  1.
</event>
<event>
 7   0  0.6206631E-02  0.9118800E+02  0.7818608E-02  0.1180000E+00
       11   -1    0    0    0    0  0.00000000000E+00  0.00000000000E+00  0.11999999989E+02  0.12000000000E+02  0.51109989000E-03 0. -1.
     -623   -1    0    0    0    0  0.00000000000E+00  0.00000000000E+00  0.42561509872E-11  0.25126700000E+02  0.25126700000E+02 0.  1.
      622    2    1    2    0    0 -0.40355155879E-02 -0.17939883831E-02  0.11963794783E+02  0.11964326473E+02  0.11270693615E+00 0.  0.
       11    1    1    2    0    0  0.49235363668E-02 -0.54361708112E-03  0.35324107395E-01  0.35673386668E-01  0.51109989000E-03 0. -1.
     -623    1    1    2    0    0 -0.88802077886E-03  0.23376054642E-02  0.88109887323E-03  0.25126700140E+02  0.25126700000E+02 0.  1.
     -611    1    3    3    0    0  0.52464380096E-01 -0.97959839730E-02  0.51949569814E+01  0.51952407559E+01  0.10000000000E-01 0.  1.
      611    1    3    3    0    0 -0.56499895684E-01  0.80019955899E-02  0.67688378014E+01  0.67690857176E+01  0.10000000000E-01 0. -1.
</event>
<event>
 7   0  0.6206631E-02  0.9118800E+02  0.7818608E-02  0.1180000E+00
       11   -1    0    0    0    0  0.00000000000E+00  0.00000000000E+00  0.11999999989E+02  0.12000000000E+02  0.51109989000E-03 0. -1.
     -623   -1    0    0    0    0  0.00000000000E+00  0.00000000000E+00  0.42561509872E-11  0.25126700000E+02  0.25126700000E+02 0.  1.
      622    2    1    2    0    0  0.73546865079E-02 -0.11956230293E-02  0.10408372784E+02  0.10408435149E+02  0.35251996921E-01 0.  0.
       11    1    1    2    0    0 -0.57464719894E-02 -0.70888641802E-02  0.15915371908E+01  0.15915634341E+01  0.51109989000E-03 0. -1.
     -623    1    1    2    0    0 -0.16082145185E-02  0.82844872095E-02  0.90014040843E-04  0.25126701417E+02  0.25126700000E+02 0.  1.
     -611    1    3    3    0    0 -0.88720760832E-02 -0.77195512093E-03  0.66977024911E+01  0.66977158770E+01  0.10000000000E-01 0. -1.
      611    1    3    3    0    0  0.16226762591E-01 -0.42366790837E-03  0.37106702931E+01  0.37107192715E+01  0.10000000000E-01 0. -1.
</event>
<event>
 7   0  0.6206631E-02  0.9118800E+02  0.7818608E-02  0.1180000E+00
       11   -1    0    0    0    0  0.00000000000E+00  0.00000000000E+00  0.11999999989E+02  0.12000000000E+02  0.51109989000E-03 0.  1.
     -623   -1    0    0    0    0  0.00000000000E+00  0.00000000000E+00  0.42561509872E-11  0.25126700000E+02  0.25126700000E+02 0.  1.
      622    2    1    2    0    0  0.11004081005E-01  0.19512606333E-01  0.10663176913E+02  0.10663883511E+02  0.12069730317E+00 0.  0.
       11    1    1    2    0    0  0.10413241305E+00 -0.11102492400E+00  0.13269821916E+01  0.13356841286E+01  0.51109989000E-03 0.  1.
     -623    1    1    2    0    0 -0.11513649406E+00  0.91512317662E-01  0.98408848932E-02  0.25127132360E+02  0.25126700000E+02 0.  1.
     -611    1    3    3    0    0 -0.12486940252E-01 -0.29412513814E-01  0.10213064106E+01  0.10218550798E+01  0.10000000000E-01 0. -1.
      611    1    3    3    0    0  0.23491021256E-01  0.48925120148E-01  0.96418705019E+01  0.96420284314E+01  0.10000000000E-01 0.  1.
</event>
<event>
 7   0  0.6206631E-02  0.9118800E+02  0.7818608E-02  0.1180000E+00
       11   -1    0    0    0    0  0.00000000000E+00  0.00000000000E+00  0.11999999989E+02  0.12000000000E+02  0.51109989000E-03 0. -1.
     -623   -1    0    0    0    0  0.00000000000E+00  0.00000000000E+00  0.42561509872E-11  0.25126700000E+02  0.25126700000E+02 0.  1.
      622    2    1    2    0    0 -0.36039412232E-02 -0.32155376997E-01  0.11256225098E+02  0.11256421678E+02  0.58125552453E-01 0.  0.
       11    1    1    2    0    0 -0.85489082125E-02  0.27837687682E-01  0.74300437377E+00  0.74357500049E+00  0.51109989000E-03 0. -1.
     -623    1    1    2    0    0  0.12152849436E-01  0.43176893143E-02  0.77051757966E-03  0.25126703322E+02  0.25126700000E+02 0.  1.
     -611    1    3    3    0    0  0.27102727526E-02  0.13810042425E-01  0.19843845365E+01  0.19844596371E+01  0.10000000000E-01 0.  1.
      611    1    3    3    0    0 -0.63142139758E-02 -0.45965419422E-01  0.92718405614E+01  0.92719620408E+01  0.10000000000E-01 0. -1.
</event>
<event>
 7   0  0.6206631E-02  0.9118800E+02  0.7818608E-02  0.1180000E+00
       11   -1    0    0    0    0  0.00000000000E+00  0.00000000000E+00  0.11999999989E+02  0.12000000000E+02  0.51109989000E-03 0.  1.
     -623   -1    0    0    0    0  0.00000000000E+00  0.00000000000E+00  0.42561509872E-11  0.25126700000E+02  0.25126700000E+02 0. -1.
      622    2    1    2    0    0  0.43035969672E-02 -0.24094139335E-02  0.11806155508E+02  0.11806585071E+02  0.10059248310E+00 0.  0.
       11    1    1    2    0    0 -0.40114282391E-02  0.20929003929E-02  0.19336131575E+00  0.19341492042E+00  0.51109989000E-03 0.  1.
     -623    1    1    2    0    0 -0.29216872810E-03  0.31651354066E-03  0.48316572676E-03  0.25126700008E+02  0.25126700000E+02 0. -1.
     -611    1    3    3    0    0  0.15215478817E-01 -0.27038588041E-01  0.13619814426E+01  0.13623714787E+01  0.10000000000E-01 0. -1.
      611    1    3    3    0    0 -0.10911881850E-01  0.24629174108E-01  0.10444174065E+02  0.10444213593E+02  0.10000000000E-01 0.  1.
</event>
<event>
 7   0  0.6206631E-02  0.9118800E+02  0.7818608E-02  0.1180000E+00
       11   -1    0    0    0    0  0.00000000000E+00  0.00000000000E+00  0.11999999989E+02  0.12000000000E+02  0.51109989000E-03 0.  1.
     -623   -1    0    0    0    0  0.00000000000E+00  0.00000000000E+00  0.42561509872E-11  0.25126700000E+02  0.25126700000E+02 0. -1.
      622    2    1    2    0    0 -0.34071279773E-03 -0.68685075633E-03  0.11920794190E+02  0.11920828214E+02  0.28471061201E-01 0.  0.
       11    1    1    2    0    0  0.69678274417E-03  0.44917927473E-04  0.79167046531E-01  0.79171775295E-01  0.51109989000E-03 0.  1.
     -623    1    1    2    0    0 -0.35606994644E-03  0.64193282886E-03  0.38752713102E-04  0.25126700011E+02  0.25126700000E+02 0. -1.
     -611    1    3    3    0    0  0.18608739129E-02  0.94868222634E-02  0.52651900828E+01  0.52652084546E+01  0.10000000000E-01 0.  1.
      611    1    3    3    0    0 -0.22015867107E-02 -0.10173673020E-01  0.66556041071E+01  0.66556197593E+01  0.10000000000E-01 0.  1.
</event>
<event>
 7   0  0.6206631E-02  0.9118800E+02  0.7818608E-02  0.1180000E+00
       11   -1    0    0    0    0  0.00000000000E+00  0.00000000000E+00  0.11999999989E+02  0.12000000000E+02  0.51109989000E-03 0.  1.
     -623   -1    0    0    0    0  0.00000000000E+00  0.00000000000E+00  0.42561509872E-11  0.25126700000E+02  0.25126700000E+02 0. -1.
      622    2    1    2    0    0  0.64715594296E-02 -0.18339688356E-01  0.11696585185E+02  0.11697060534E+02  0.10364321256E+00 0.  0.
       11    1    1    2    0    0  0.12241785385E-01  0.33404143056E-01  0.30083105267E+00  0.30292784877E+00  0.51109989000E-03 0.  1.
     -623    1    1    2    0    0 -0.18713344815E-01 -0.15064454700E-01  0.25837511633E-02  0.25126711617E+02  0.25126700000E+02 0. -1.
     -611    1    3    3    0    0 -0.13767954653E-01 -0.46773611265E-01  0.31071856394E+01  0.31075842587E+01  0.10000000000E-01 0. -1.
      611    1    3    3    0    0  0.20239514083E-01  0.28433922908E-01  0.85893995459E+01  0.85894762753E+01  0.10000000000E-01 0.  1.
</event>
<event>
 7   0  0.6206631E-02  0.9118800E+02  0.7818608E-02  0.1180000E+00
       11   -1    0    0    0    0  0.00000000000E+00  0.00000000000E+00  0.11999999989E+02  0.12000000000E+02  0.51109989000E-03 0.  1.
     -623   -1    0    0    0    0  0.00000000000E+00  0.00000000000E+00  0.42561509872E-11  0.25126700000E+02  0.25126700000E+02 0. -1.
      622    2    1    2    0    0 -0.41226269607E-02  0.62166651253E-02  0.11735569374E+02  0.11735809807E+02  0.74750692717E-01 0.  0.
       11    1    1    2    0    0  0.78863017539E-03  0.24800545325E-02  0.26417515269E+00  0.26418846517E+00  0.51109989000E-03 0.  1.
     -623    1    1    2    0    0  0.33339967854E-02 -0.86967196579E-02  0.25546275748E-03  0.25126701728E+02  0.25126700000E+02 0. -1.
     -611    1    3    3    0    0  0.15634786185E-01  0.15625684805E-01  0.13850531991E+01  0.13852656687E+01  0.10000000000E-01 0. -1.
      611    1    3    3    0    0 -0.19757413146E-01 -0.94090196799E-02  0.10350516175E+02  0.10350544139E+02  0.10000000000E-01 0.  1.
</event>
<event>
 7   0  0.6206631E-02  0.9118800E+02  0.7818608E-02  0.1180000E+00
       11   -1    0    0    0    0  0.00000000000E+00  0.00000000000E+00  0.11999999989E+02  0.12000000000E+02  0.51109989000E-03 0. -1.
     -623   -1    0    0    0    0  0.00000000000E+00  0.00000000000E+00  0.42561509872E-11  0.25126700000E+02  0.25126700000E+02 0. -1.
      622    2    1    2    0    0 -0.81926060230E-01 -0.38724862902E-01  0.45040048039E+01  0.45070689547E+01  0.13928314564E+00 0.  0.
       11    1    1    2    0    0  0.91663635801E-01  0.46509304651E-01  0.74922225981E+01  0.74929276694E+01  0.51109989000E-03 0. -1.
     -623    1    1    2    0    0 -0.97375755711E-02 -0.77844417484E-02  0.37725870924E-02  0.25126703376E+02  0.25126700000E+02 0. -1.
     -611    1    3    3    0    0 -0.87152027341E-01  0.31681694954E-01  0.28552948124E+01  0.28568177525E+01  0.10000000000E-01 0. -1.
      611    1    3    3    0    0  0.52259671113E-02 -0.70406557857E-01  0.16487099916E+01  0.16502512022E+01  0.10000000000E-01 0.  1.
</event>
<event>
 7   0  0.6206631E-02  0.9118800E+02  0.7818608E-02  0.1180000E+00
       11   -1    0    0    0    0  0.00000000000E+00  0.00000000000E+00  0.11999999989E+02  0.12000000000E+02  0.51109989000E-03 0.  1.
     -623   -1    0    0    0    0  0.00000000000E+00  0.00000000000E+00  0.42561509872E-11  0.25126700000E+02  0.25126700000E+02 0.  1.
      622    2    1    2    0    0 -0.63592695413E-02 -0.21768134262E-01  0.99003159420E+01  0.99006941686E+01  0.83516317092E-01 0.  0.
       11    1    1    2    0    0  0.76289589033E-02  0.11462742609E-01  0.20992584630E+01  0.20993036824E+01  0.51109989000E-03 0.  1.
     -623    1    1    2    0    0 -0.12696893620E-02  0.10305391654E-01  0.42558409614E-03  0.25126702149E+02  0.25126700000E+02 0.  1.
     -611    1    3    3    0    0  0.26559892433E-01  0.14422498837E-01  0.23866845356E+01  0.23868968366E+01  0.10000000000E-01 0. -1.
      611    1    3    3    0    0 -0.32919161975E-01 -0.36190633099E-01  0.75136314065E+01  0.75137973320E+01  0.10000000000E-01 0.  1.
</event>
<event>
 7   0  0.6206631E-02  0.9118800E+02  0.7818608E-02  0.1180000E+00
       11   -1    0    0    0    0  0.00000000000E+00  0.00000000000E+00  0.11999999989E+02  0.12000000000E+02  0.51109989000E-03 0. -1.
     -623   -1    0    0    0    0  0.00000000000E+00  0.00000000000E+00  0.42561509872E-11  0.25126700000E+02  0.25126700000E+02 0.  1.
      622    2    1    2    0    0  0.61814710504E-02  0.17444774911E-01  0.10418299713E+02  0.10418849905E+02  0.10546042761E+00 0.  0.
       11    1    1    2    0    0  0.56877433451E-02 -0.14872194309E-01  0.15810668937E+01  0.15811471520E+01  0.51109989000E-03 0. -1.
     -623    1    1    2    0    0 -0.11869214395E-01 -0.25725806026E-02  0.63338239798E-03  0.25126702943E+02  0.25126700000E+02 0.  1.
     -611    1    3    3    0    0 -0.44272007479E-01 -0.32636040986E-03  0.29201389299E+01  0.29204916516E+01  0.10000000000E-01 0.  1.
      611    1    3    3    0    0  0.50453478529E-01  0.17771135321E-01  0.74981607831E+01  0.74983582534E+01  0.10000000000E-01 0. -1.
</event>
<event>
 7   0  0.6206631E-02  0.9118800E+02  0.7818608E-02  0.1180000E+00
       11   -1    0    0    0    0  0.00000000000E+00  0.00000000000E+00  0.11999999989E+02  0.12000000000E+02  0.51109989000E-03 0. -1.
     -623   -1    0    0    0    0  0.00000000000E+00  0.00000000000E+00  0.42561509872E-11  0.25126700000E+02  0.25126700000E+02 0.  1.
      622    2    1    2    0    0  0.98655303775E-02  0.16965376353E-01  0.11599294093E+02  0.11599808465E+02  0.10746083318E+00 0.  0.
       11    1    1    2    0    0 -0.10019792365E-01 -0.24457496423E-01  0.39931630673E+00  0.40019037896E+00  0.51109989000E-03 0. -1.
     -623    1    1    2    0    0  0.15426198753E-03  0.74921200700E-02  0.13895898546E-02  0.25126701156E+02  0.25126700000E+02 0.  1.
     -611    1    3    3    0    0  0.43723436328E-01  0.38105063949E-01  0.43569840827E+01  0.43573815568E+01  0.10000000000E-01 0. -1.
      611    1    3    3    0    0 -0.33857905951E-01 -0.21139687596E-01  0.72423100099E+01  0.72424269084E+01  0.10000000000E-01 0.  1.
</event>
<event>
 6   0  0.6206631E-02  0.9118800E+02  0.7818608E-02  0.1180000E+00
       11   -1    0    0    0    0  0.00000000000E+00  0.00000000000E+00  0.11999999989E+02  0.12000000000E+02  0.51109989000E-03 0.  1.
     -623   -1    0    0    0    0  0.00000000000E+00  0.00000000000E+00  0.42561509872E-11  0.25126700000E+02  0.25126700000E+02 0.  1.
       11    1    1    2    0    0 -0.64142596231E-01 -0.37118252088E-01  0.63624816159E+00  0.64054978076E+00  0.51109989000E-03 0.  1.
     -623    1    1    2    0    0 -0.27539919059E-01  0.22689126910E-01  0.18232065875E-01  0.25126731951E+02  0.25126700000E+02 0.  1.
     -611    1    1    2    0    0 -0.41470951082E-01  0.13031351824E+00  0.75048124436E+00  0.76290468012E+00  0.10000000000E-01 0. -1.
      611    1    1    2    0    0  0.13315346637E+00 -0.11588439306E+00  0.10595038517E+02  0.10596513588E+02  0.10000000000E-01 0.  1.
</event>
<event>
 7   0  0.6206631E-02  0.9118800E+02  0.7818608E-02  0.1180000E+00
       11   -1    0    0    0    0  0.00000000000E+00  0.00000000000E+00  0.11999999989E+02  0.12000000000E+02  0.51109989000E-03 0. -1.
     -623   -1    0    0    0    0  0.00000000000E+00  0.00000000000E+00  0.42561509872E-11  0.25126700000E+02  0.25126700000E+02 0.  1.
      622    2    1    2    0    0 -0.67282945246E-02  0.42308072534E-02  0.62761156862E+01  0.62767279152E+01  0.87304322674E-01 0.  0.
       11    1    1    2    0    0  0.85272566586E-02 -0.24938702321E-02  0.57232650341E+01  0.57232719528E+01  0.51109989000E-03 0. -1.
     -623    1    1    2    0    0 -0.17989621339E-02 -0.17369370214E-02  0.61926881073E-03  0.25126700132E+02  0.25126700000E+02 0.  1.
     -611    1    3    3    0    0 -0.26638820191E-01  0.35796549961E-01  0.25320621662E+01  0.25324750410E+01  0.10000000000E-01 0.  1.
      611    1    3    3    0    0  0.19910525667E-01 -0.31565742707E-01  0.37440535200E+01  0.37442528742E+01  0.10000000000E-01 0. -1.
</event>
<event>
 7   0  0.6206631E-02  0.9118800E+02  0.7818608E-02  0.1180000E+00
       11   -1    0    0    0    0  0.00000000000E+00  0.00000000000E+00  0.11999999989E+02  0.12000000000E+02  0.51109989000E-03 0. -1.
     -623   -1    0    0    0    0  0.00000000000E+00  0.00000000000E+00  0.42561509872E-11  0.25126700000E+02  0.25126700000E+02 0. -1.
      622    2    1    2    0    0  0.49468134608E-02  0.80685461480E-03  0.11936698214E+02  0.11937272749E+02  0.11700983045E+00 0.  0.
       11    1    1    2    0    0 -0.42358297333E-02 -0.12932754796E-02  0.62568592890E-01  0.62727225782E-01  0.51109989000E-03 0. -1.
     -623    1    1    2    0    0 -0.71098372750E-03  0.48642086476E-03  0.73318207830E-03  0.25126700025E+02  0.25126700000E+02 0. -1.
     -611    1    3    3    0    0 -0.54703597010E-01  0.52719870367E-02  0.63336355404E+01  0.63338818615E+01  0.10000000000E-01 0. -1.
      611    1    3    3    0    0  0.59650410471E-01 -0.44651324219E-02  0.56030626738E+01  0.56033908872E+01  0.10000000000E-01 0.  1.
</event>
<event>
 7   0  0.6206631E-02  0.9118800E+02  0.7818608E-02  0.1180000E+00
       11   -1    0    0    0    0  0.00000000000E+00  0.00000000000E+00  0.11999999989E+02  0.12000000000E+02  0.51109989000E-03 0. -1.
     -623   -1    0    0    0    0  0.00000000000E+00  0.00000000000E+00  0.42561509872E-11  0.25126700000E+02  0.25126700000E+02 0.  1.
      622    2    1    2    0    0 -0.58539385514E-03  0.14620358155E-01  0.11555169460E+02  0.11555458395E+02  0.80395040573E-01 0.  0.
       11    1    1    2    0    0  0.63662168258E-02 -0.12735048752E-01  0.44431251208E+00  0.44454086403E+00  0.51109989000E-03 0. -1.
     -623    1    1    2    0    0 -0.57808229706E-02 -0.18853094033E-02  0.51801673662E-03  0.25126700741E+02  0.25126700000E+02 0.  1.
     -611    1    3    3    0    0  0.72067902557E-02  0.45962826236E-01  0.72509949228E+01  0.72511510734E+01  0.10000000000E-01 0. -1.
      611    1    3    3    0    0 -0.77921841108E-02 -0.31342468081E-01  0.43041745376E+01  0.43043073216E+01  0.10000000000E-01 0.  1.
</event>
<event>
 7   0  0.6206631E-02  0.9118800E+02  0.7818608E-02  0.1180000E+00
       11   -1    0    0    0    0  0.00000000000E+00  0.00000000000E+00  0.11999999989E+02  0.12000000000E+02  0.51109989000E-03 0.  1.
     -623   -1    0    0    0    0  0.00000000000E+00  0.00000000000E+00  0.42561509872E-11  0.25126700000E+02  0.25126700000E+02 0. -1.
      622    2    1    2    0    0  0.43366282557E-02 -0.63632391120E-02  0.11851719885E+02  0.11852144467E+02  0.10002478322E+00 0.  0.
       11    1    1    2    0    0  0.58059330087E-02 -0.79678889887E-02  0.14751943574E+00  0.14784938707E+00  0.51109989000E-03 0.  1.
     -623    1    1    2    0    0 -0.10142561264E-01  0.14331128101E-01  0.76066878818E-03  0.25126706145E+02  0.25126700000E+02 0. -1.
     -611    1    3    3    0    0  0.19064955826E-02  0.41948261910E-01  0.33054822572E+01  0.33057640939E+01  0.10000000000E-01 0. -1.
      611    1    3    3    0    0  0.24301326731E-02 -0.48311501022E-01  0.85462376274E+01  0.85463803736E+01  0.10000000000E-01 0.  1.
</event>
<event>
 7   0  0.6206631E-02  0.9118800E+02  0.7818608E-02  0.1180000E+00
       11   -1    0    0    0    0  0.00000000000E+00  0.00000000000E+00  0.11999999989E+02  0.12000000000E+02  0.51109989000E-03 0. -1.
     -623   -1    0    0    0    0  0.00000000000E+00  0.00000000000E+00  0.42561509872E-11  0.25126700000E+02  0.25126700000E+02 0. -1.
      622    2    1    2    0    0 -0.16928520851E-02  0.56875193965E-02  0.11947720998E+02  0.11948208469E+02  0.10776534275E+00 0.  0.
       11    1    1    2    0    0  0.13402062422E-01 -0.12618631405E-01  0.48402931027E-01  0.51787547642E-01  0.51109989000E-03 0. -1.
     -623    1    1    2    0    0 -0.11709210337E-01  0.69311120084E-02  0.38760603660E-02  0.25126703983E+02  0.25126700000E+02 0. -1.
     -611    1    3    3    0    0 -0.22751745763E-01  0.20260938418E-01  0.11091192282E+02  0.11091238632E+02  0.10000000000E-01 0. -1.
      611    1    3    3    0    0  0.21058893678E-01 -0.14573419021E-01  0.85652871519E+00  0.85696983697E+00  0.10000000000E-01 0.  1.
</event>
<event>
 7   0  0.6206631E-02  0.9118800E+02  0.7818608E-02  0.1180000E+00
       11   -1    0    0    0    0  0.00000000000E+00  0.00000000000E+00  0.11999999989E+02  0.12000000000E+02  0.51109989000E-03 0.  1.
     -623   -1    0    0    0    0  0.00000000000E+00  0.00000000000E+00  0.42561509872E-11  0.25126700000E+02  0.25126700000E+02 0.  1.
      622    2    1    2    0    0  0.10287091542E-01  0.89775117566E-02  0.11097541718E+02  0.11098152535E+02  0.11563339066E+00 0.  0.
       11    1    1    2    0    0 -0.84259794582E-02 -0.57553763848E-02  0.90178930697E+00  0.90184718044E+00  0.51109989000E-03 0.  1.
     -623    1    1    2    0    0 -0.18611120836E-02 -0.32221353718E-02  0.66896373404E-03  0.25126700284E+02  0.25126700000E+02 0.  1.
     -611    1    3    3    0    0 -0.18454863245E-01 -0.39370936993E-01  0.77103156534E+01  0.77104447425E+01  0.10000000000E-01 0.  1.
      611    1    3    3    0    0  0.28741954787E-01  0.48348448750E-01  0.33872260651E+01  0.33877077926E+01  0.10000000000E-01 0. -1.
</event>
<event>
 7   0  0.6206631E-02  0.9118800E+02  0.7818608E-02  0.1180000E+00
       11   -1    0    0    0    0  0.00000000000E+00  0.00000000000E+00  0.11999999989E+02  0.12000000000E+02  0.51109989000E-03 0.  1.
     -623   -1    0    0    0    0  0.00000000000E+00  0.00000000000E+00  0.42561509872E-11  0.25126700000E+02  0.25126700000E+02 0.  1.
      622    2    1    2    0    0  0.13566495108E-02  0.19150895233E-03  0.11917735153E+02  0.11918150724E+02  0.99516957948E-01 0.  0.
       11    1    1    2    0    0  0.52256065886E-03 -0.88076907975E-03  0.81841189667E-01  0.81849192867E-01  0.51109989000E-03 0.  1.
     -623    1    1    2    0    0 -0.18792101696E-02  0.68926012743E-03  0.42364658268E-03  0.25126700083E+02  0.25126700000E+02 0.  1.
     -611    1    3    3    0    0 -0.24160510985E-01 -0.19626225927E-01  0.10346298491E+02  0.10346350148E+02  0.10000000000E-01 0.  1.
      611    1    3    3    0    0  0.25517160496E-01  0.19817734879E-01  0.15714366623E+01  0.15718005763E+01  0.10000000000E-01 0. -1.
</event>
<event>
 7   0  0.6206631E-02  0.9118800E+02  0.7818608E-02  0.1180000E+00
       11   -1    0    0    0    0  0.00000000000E+00  0.00000000000E+00  0.11999999989E+02  0.12000000000E+02  0.51109989000E-03 0.  1.
     -623   -1    0    0    0    0  0.00000000000E+00  0.00000000000E+00  0.42561509872E-11  0.25126700000E+02  0.25126700000E+02 0.  1.
      622    2    1    2    0    0  0.49644983431E-01  0.26825299003E-01  0.10621807162E+02  0.10622623378E+02  0.11897821946E+00 0.  0.
       11    1    1    2    0    0 -0.10414995506E+00 -0.12488129538E-01  0.13733126053E+01  0.13773129418E+01  0.51109989000E-03 0.  1.
     -623    1    1    2    0    0  0.54504971633E-01 -0.14337169465E-01  0.48802217537E-02  0.25126763680E+02  0.25126700000E+02 0.  1.
     -611    1    3    3    0    0  0.24125531202E-01  0.61596582293E-01  0.32776738218E+01  0.32783565795E+01  0.10000000000E-01 0.  1.
      611    1    3    3    0    0  0.25519452229E-01 -0.34771283290E-01  0.73441333402E+01  0.73442667982E+01  0.10000000000E-01 0. -1.
</event>
<event>
 7   0  0.6206631E-02  0.9118800E+02  0.7818608E-02  0.1180000E+00
       11   -1    0    0    0    0  0.00000000000E+00  0.00000000000E+00  0.11999999989E+02  0.12000000000E+02  0.51109989000E-03 0.  1.
     -623   -1    0    0    0    0  0.00000000000E+00  0.00000000000E+00  0.42561509872E-11  0.25126700000E+02  0.25126700000E+02 0.  1.
      622    2    1    2    0    0  0.55808365577E-03  0.13772445128E-02  0.11971382063E+02  0.11971594655E+02  0.71329361462E-01 0.  0.
       11    1    1    2    0    0 -0.97587815079E-03 -0.46986516236E-03  0.28380064757E-01  0.28405323624E-01  0.51109989000E-03 0.  1.
     -623    1    1    2    0    0  0.41779449502E-03 -0.90737935049E-03  0.23786100183E-03  0.25126700021E+02  0.25126700000E+02 0.  1.
     -611    1    3    3    0    0  0.30910372130E-02 -0.24816209583E-01  0.97102465816E+01  0.97102839338E+01  0.10000000000E-01 0.  1.
      611    1    3    3    0    0 -0.25329535572E-02  0.26193454096E-01  0.22611354817E+01  0.22613107215E+01  0.10000000000E-01 0.  1.
</event>
<event>
 7   0  0.6206631E-02  0.9118800E+02  0.7818608E-02  0.1180000E+00
       11   -1    0    0    0    0  0.00000000000E+00  0.00000000000E+00  0.11999999989E+02  0.12000000000E+02  0.51109989000E-03 0.  1.
     -623   -1    0    0    0    0  0.00000000000E+00  0.00000000000E+00  0.42561509872E-11  0.25126700000E+02  0.25126700000E+02 0. -1.
      622    2    1    2    0    0 -0.20501584883E-01  0.47022098445E-01  0.11589708303E+02  0.11590369218E+02  0.11264395707E+00 0.  0.
       11    1    1    2    0    0  0.27752327915E-01 -0.44319123514E-01  0.40627761600E+00  0.40962927007E+00  0.51109989000E-03 0.  1.
     -623    1    1    2    0    0 -0.72507430323E-02 -0.27029749309E-02  0.40140700620E-02  0.25126701512E+02  0.25126700000E+02 0. -1.
     -611    1    3    3    0    0 -0.52387039229E-01  0.65326023157E-01  0.71467153008E+01  0.71472128471E+01  0.10000000000E-01 0.  1.
      611    1    3    3    0    0  0.31885454346E-01 -0.18303924712E-01  0.44429930023E+01  0.44431563707E+01  0.10000000000E-01 0. -1.
</event>
<event>
 7   0  0.6206631E-02  0.9118800E+02  0.7818608E-02  0.1180000E+00
       11   -1    0    0    0    0  0.00000000000E+00  0.00000000000E+00  0.11999999989E+02  0.12000000000E+02  0.51109989000E-03 0.  1.
     -623   -1    0    0    0    0  0.00000000000E+00  0.00000000000E+00  0.42561509872E-11  0.25126700000E+02  0.25126700000E+02 0.  1.
      622    2    1    2    0    0  0.16624650240E-02 -0.69555553464E-02  0.11951774338E+02  0.11951964069E+02  0.66963729501E-01 0.  0.
       11    1    1    2    0    0 -0.12367526419E-02 -0.64614265570E-02  0.47576933095E-01  0.48032336775E-01  0.51109989000E-03 0.  1.
     -623    1    1    2    0    0 -0.42571238210E-03  0.13416981903E-01  0.64871811924E-03  0.25126703594E+02  0.25126700000E+02 0.  1.
     -611    1    3    3    0    0  0.97479630491E-02 -0.59210787634E-02  0.63068486856E+00  0.63086724863E+00  0.10000000000E-01 0. -1.
      611    1    3    3    0    0 -0.80854980251E-02 -0.10344765830E-02  0.11321089469E+02  0.11321096820E+02  0.10000000000E-01 0.  1.
</event>
<event>
 7   0  0.6206631E-02  0.9118800E+02  0.7818608E-02  0.1180000E+00
       11   -1    0    0    0    0  0.00000000000E+00  0.00000000000E+00  0.11999999989E+02  0.12000000000E+02  0.51109989000E-03 0. -1.
     -623   -1    0    0    0    0  0.00000000000E+00  0.00000000000E+00  0.42561509872E-11  0.25126700000E+02  0.25126700000E+02 0.  1.
      622    2    1    2    0    0  0.27655118212E-02 -0.17586222986E-02  0.11973842023E+02  0.11974294796E+02  0.10407840034E+00 0.  0.
       11    1    1    2    0    0 -0.25647741752E-02 -0.12000486819E-02  0.25543467815E-01  0.25705021972E-01  0.51109989000E-03 0. -1.
     -623    1    1    2    0    0 -0.20073764605E-03  0.29586709806E-02  0.61449813637E-03  0.25126700183E+02  0.25126700000E+02 0.  1.
     -611    1    3    3    0    0 -0.66339013867E-02  0.17560983795E-02  0.16532038410E+00  0.16576465826E+00  0.10000000000E-01 0.  1.
      611    1    3    3    0    0  0.93994132079E-02 -0.35147206781E-02  0.11808521639E+02  0.11808530137E+02  0.10000000000E-01 0. -1.
</event>
<event>
 7   0  0.6206631E-02  0.9118800E+02  0.7818608E-02  0.1180000E+00
       11   -1    0    0    0    0  0.00000000000E+00  0.00000000000E+00  0.11999999989E+02  0.12000000000E+02  0.51109989000E-03 0.  1.
     -623   -1    0    0    0    0  0.00000000000E+00  0.00000000000E+00  0.42561509872E-11  0.25126700000E+02  0.25126700000E+02 0. -1.
      622    2    1    2    0    0 -0.25368523506E-02  0.20242314290E-01  0.95399026899E+01  0.95403687868E+01  0.92070996821E-01 0.  0.
       11    1    1    2    0    0  0.12337088133E-01 -0.34907556526E-01  0.24593462937E+01  0.24596250110E+01  0.51109989000E-03 0.  1.
     -623    1    1    2    0    0 -0.98002357827E-02  0.14665242236E-01  0.75100545874E-03  0.25126706202E+02  0.25126700000E+02 0. -1.
     -611    1    3    3    0    0  0.35373726337E-01 -0.16104015468E-01  0.46785534585E+01  0.46787255855E+01  0.10000000000E-01 0.  1.
      611    1    3    3    0    0 -0.37910578687E-01  0.36346329759E-01  0.48613492314E+01  0.48616432014E+01  0.10000000000E-01 0. -1.
</event>
<event>
 7   0  0.6206631E-02  0.9118800E+02  0.7818608E-02  0.1180000E+00
       11   -1    0    0    0    0  0.00000000000E+00  0.00000000000E+00  0.11999999989E+02  0.12000000000E+02  0.51109989000E-03 0.  1.
     -623   -1    0    0    0    0  0.00000000000E+00  0.00000000000E+00  0.42561509872E-11  0.25126700000E+02  0.25126700000E+02 0.  1.
      622    2    1    2    0    0  0.18425709872E-02  0.20815835682E-02  0.11991633740E+02  0.11992005227E+02  0.94349830391E-01 0.  0.
       11    1    1    2    0    0  0.91782824115E-03 -0.14517555802E-02  0.77911818971E-02  0.79946070248E-02  0.51109989000E-03 0.  1.
     -623    1    1    2    0    0 -0.27603992284E-02 -0.62982798799E-03  0.57506770254E-03  0.25126700166E+02  0.25126700000E+02 0.  1.
     -611    1    3    3    0    0  0.26227340918E-01 -0.16454006913E-01  0.16471872318E+01  0.16475085385E+01  0.10000000000E-01 0.  1.
      611    1    3    3    0    0 -0.24384769931E-01  0.18535590481E-01  0.10344446508E+02  0.10344496688E+02  0.10000000000E-01 0.  1.
</event>
<event>
 7   0  0.6206631E-02  0.9118800E+02  0.7818608E-02  0.1180000E+00
       11   -1    0    0    0    0  0.00000000000E+00  0.00000000000E+00  0.11999999989E+02  0.12000000000E+02  0.51109989000E-03 0. -1.
     -623   -1    0    0    0    0  0.00000000000E+00  0.00000000000E+00  0.42561509872E-11  0.25126700000E+02  0.25126700000E+02 0.  1.
      622    2    1    2    0    0 -0.55787201871E-03 -0.49473782875E-01  0.11165125323E+02  0.11165633285E+02  0.94314421989E-01 0.  0.
       11    1    1    2    0    0  0.46823999549E-02  0.50963183276E-01  0.83279505312E+00  0.83436624610E+00  0.51109989000E-03 0. -1.
     -623    1    1    2    0    0 -0.41245279362E-02 -0.14894004017E-02  0.20796128197E-02  0.25126700469E+02  0.25126700000E+02 0.  1.
     -611    1    3    3    0    0  0.22888296719E-01 -0.22264938542E-02  0.85371103568E+00  0.85407924916E+00  0.10000000000E-01 0. -1.
      611    1    3    3    0    0 -0.23446168737E-01 -0.47247289020E-01  0.10311414288E+02  0.10311554036E+02  0.10000000000E-01 0.  1.
</event>
<event>
 7   0  0.6206631E-02  0.9118800E+02  0.7818608E-02  0.1180000E+00
       11   -1    0    0    0    0  0.00000000000E+00  0.00000000000E+00  0.11999999989E+02  0.12000000000E+02  0.51109989000E-03 0.  1.
     -623   -1    0    0    0    0  0.00000000000E+00  0.00000000000E+00  0.42561509872E-11  0.25126700000E+02  0.25126700000E+02 0.  1.
      622    2    1    2    0    0  0.10826356107E+00 -0.96630397349E-01  0.43453198406E+01  0.43483253558E+01  0.71207090299E-01 0.  0.
       11    1    1    2    0    0 -0.11527365664E+00  0.86375845570E-01  0.76503152228E+01  0.76516711948E+01  0.51109989000E-03 0.  1.
     -623    1    1    2    0    0  0.70100955717E-02  0.10254551778E-01  0.43649256668E-02  0.25126703450E+02  0.25126700000E+02 0.  1.
     -611    1    3    3    0    0 -0.20851995532E-02 -0.14805397364E-01  0.23048417358E+00  0.23118499545E+00  0.10000000000E-01 0. -1.
      611    1    3    3    0    0  0.11034876062E+00 -0.81824999985E-01  0.41148356671E+01  0.41171403603E+01  0.10000000000E-01 0.  1.
</event>
<event>
 7   0  0.6206631E-02  0.9118800E+02  0.7818608E-02  0.1180000E+00
       11   -1    0    0    0    0  0.00000000000E+00  0.00000000000E+00  0.11999999989E+02  0.12000000000E+02  0.51109989000E-03 0.  1.
     -623   -1    0    0    0    0  0.00000000000E+00  0.00000000000E+00  0.42561509872E-11  0.25126700000E+02  0.25126700000E+02 0. -1.
      622    2    1    2    0    0 -0.11171191507E-02 -0.13724107092E-01  0.11876363160E+02  0.11876996405E+02  0.12186916671E+00 0.  0.
       11    1    1    2    0    0 -0.26304599318E-02 -0.22909484313E-02  0.12294766696E+00  0.12299820242E+00  0.51109989000E-03 0.  1.
     -623    1    1    2    0    0  0.37475790825E-02  0.16015055523E-01  0.68916213425E-03  0.25126705393E+02  0.25126700000E+02 0. -1.
     -611    1    3    3    0    0 -0.13293510349E-01  0.51595367558E-01  0.44780781743E+01  0.44784062940E+01  0.10000000000E-01 0. -1.
      611    1    3    3    0    0  0.12176391199E-01 -0.65319474650E-01  0.73982849858E+01  0.73985901109E+01  0.10000000000E-01 0.  1.
</event>
<event>
 7   0  0.6206631E-02  0.9118800E+02  0.7818608E-02  0.1180000E+00
       11   -1    0    0    0    0  0.00000000000E+00  0.00000000000E+00  0.11999999989E+02  0.12000000000E+02  0.51109989000E-03 0.  1.
     -623   -1    0    0    0    0  0.00000000000E+00  0.00000000000E+00  0.42561509872E-11  0.25126700000E+02  0.25126700000E+02 0. -1.
      622    2    1    2    0    0 -0.13703492726E-01 -0.12562197633E-01  0.10874827308E+02  0.10875301717E+02  0.99864171774E-01 0.  0.
       11    1    1    2    0    0  0.12377122733E-01  0.15884950393E-01  0.11245176076E+01  0.11246980199E+01  0.51109989000E-03 0.  1.
     -623    1    1    2    0    0  0.13263699931E-02 -0.33227527605E-02  0.65507316845E-03  0.25126700263E+02  0.25126700000E+02 0. -1.
     -611    1    3    3    0    0 -0.51674409012E-01 -0.22301985015E-01  0.48136790221E+01  0.48140184203E+01  0.10000000000E-01 0. -1.
      611    1    3    3    0    0  0.37970916285E-01  0.97397873821E-02  0.60611482862E+01  0.60612832966E+01  0.10000000000E-01 0.  1.
</event>
<event>
 7   0  0.6206631E-02  0.9118800E+02  0.7818608E-02  0.1180000E+00
       11   -1    0    0    0    0  0.00000000000E+00  0.00000000000E+00  0.11999999989E+02  0.12000000000E+02  0.51109989000E-03 0. -1.
     -623   -1    0    0    0    0  0.00000000000E+00  0.00000000000E+00  0.42561509872E-11  0.25126700000E+02  0.25126700000E+02 0. -1.
      622    2    1    2    0    0 -0.38055906292E-02  0.38666220731E-01  0.27286838742E+01  0.27313803597E+01  0.11494966284E+00 0.  0.
       11    1    1    2    0    0 -0.44684644654E-02 -0.43086086922E-01  0.92685164966E+01  0.92686177333E+01  0.51109989000E-03 0. -1.
     -623    1    1    2    0    0  0.82740550946E-02  0.44198661912E-02  0.27996183875E-02  0.25126701907E+02  0.25126700000E+02 0. -1.
     -611    1    3    3    0    0 -0.25510447292E-01  0.48675792586E-02  0.16272019080E+00  0.16508281783E+00  0.10000000000E-01 0.  1.
      611    1    3    3    0    0  0.21704856662E-01  0.33798641472E-01  0.25659636834E+01  0.25662975419E+01  0.10000000000E-01 0. -1.
</event>
<event>
 7   0  0.6206631E-02  0.9118800E+02  0.7818608E-02  0.1180000E+00
       11   -1    0    0    0    0  0.00000000000E+00  0.00000000000E+00  0.11999999989E+02  0.12000000000E+02  0.51109989000E-03 0. -1.
     -623   -1    0    0    0    0  0.00000000000E+00  0.00000000000E+00  0.42561509872E-11  0.25126700000E+02  0.25126700000E+02 0.  1.
      622    2    1    2    0    0  0.11200874107E-04 -0.13124978216E-02  0.11989486887E+02  0.11989825243E+02  0.90065678536E-01 0.  0.
       11    1    1    2    0    0 -0.83755260764E-04  0.19404538420E-03  0.10159686103E-01  0.10174729157E-01  0.51109989000E-03 0. -1.
     -623    1    1    2    0    0  0.72554386657E-04  0.11184524374E-02  0.35341586826E-03  0.25126700027E+02  0.25126700000E+02 0.  1.
     -611    1    3    3    0    0 -0.17980644193E-01 -0.35429086245E-01  0.34145376366E+01  0.34147834185E+01  0.10000000000E-01 0.  1.
      611    1    3    3    0    0  0.17991845068E-01  0.34116588423E-01  0.85749492506E+01  0.85750418249E+01  0.10000000000E-01 0. -1.
</event>
<event>
 7   0  0.6206631E-02  0.9118800E+02  0.7818608E-02  0.1180000E+00
       11   -1    0    0    0    0  0.00000000000E+00  0.00000000000E+00  0.11999999989E+02  0.12000000000E+02  0.51109989000E-03 0. -1.
     -623   -1    0    0    0    0  0.00000000000E+00  0.00000000000E+00  0.42561509872E-11  0.25126700000E+02  0.25126700000E+02 0. -1.
      622    2    1    2    0    0 -0.16435082758E-02 -0.47526610505E-02  0.11956829495E+02  0.11957212024E+02  0.95511807446E-01 0.  0.
       11    1    1    2    0    0 -0.50923589399E-02  0.16475668515E-02  0.42447715343E-01  0.42786871317E-01  0.51109989000E-03 0. -1.
     -623    1    1    2    0    0  0.67358672157E-02  0.31050941990E-02  0.72277837048E-03  0.25126701105E+02  0.25126700000E+02 0. -1.
     -611    1    3    3    0    0 -0.37812260415E-01  0.24575239220E-01  0.47281447473E+01  0.47283703811E+01  0.10000000000E-01 0.  1.
      611    1    3    3    0    0  0.36168752139E-01 -0.29327900270E-01  0.72286847482E+01  0.72288416425E+01  0.10000000000E-01 0. -1.
</event>
<event>
 7   0  0.6206631E-02  0.9118800E+02  0.7818608E-02  0.1180000E+00
       11   -1    0    0    0    0  0.00000000000E+00  0.00000000000E+00  0.11999999989E+02  0.12000000000E+02  0.51109989000E-03 0. -1.
     -623   -1    0    0    0    0  0.00000000000E+00  0.00000000000E+00  0.42561509872E-11  0.25126700000E+02  0.25126700000E+02 0.  1.
      622    2    1    2    0    0  0.88715272978E-02  0.50645816971E-02  0.92301663917E+01  0.92307234186E+01  0.10089032484E+00 0.  0.
       11    1    1    2    0    0 -0.36911907026E-02 -0.12234227948E-01  0.27692454858E+01  0.27692750176E+01  0.51109989000E-03 0. -1.
     -623    1    1    2    0    0 -0.51803365952E-02  0.71696462506E-02  0.58811156821E-03  0.25126701564E+02  0.25126700000E+02 0.  1.
     -611    1    3    3    0    0 -0.20985295497E-01 -0.12960663722E-01  0.79460737033E+01  0.79461182762E+01  0.10000000000E-01 0.  1.
      611    1    3    3    0    0  0.29856822794E-01  0.18025245419E-01  0.12840926884E+01  0.12846051424E+01  0.10000000000E-01 0. -1.
</event>
<event>
 7   0  0.6206631E-02  0.9118800E+02  0.7818608E-02  0.1180000E+00
       11   -1    0    0    0    0  0.00000000000E+00  0.00000000000E+00  0.11999999989E+02  0.12000000000E+02  0.51109989000E-03 0. -1.
     -623   -1    0    0    0    0  0.00000000000E+00  0.00000000000E+00  0.42561509872E-11  0.25126700000E+02  0.25126700000E+02 0. -1.
      622    2    1    2    0    0  0.62102183432E-01  0.53072673386E-02  0.10988633278E+02  0.10989667683E+02  0.13729390682E+00 0.  0.
       11    1    1    2    0    0 -0.63954322670E-01  0.39518809178E-02  0.10082962826E+01  0.10103303556E+01  0.51109989000E-03 0. -1.
     -623    1    1    2    0    0  0.18521392381E-02 -0.92591482564E-02  0.30704290215E-02  0.25126701962E+02  0.25126700000E+02 0. -1.
     -611    1    3    3    0    0  0.87488760550E-01 -0.33729281592E-01  0.88593238970E+01  0.88598257240E+01  0.10000000000E-01 0. -1.
      611    1    3    3    0    0 -0.25386577119E-01  0.39036548930E-01  0.21293093805E+01  0.21298419586E+01  0.10000000000E-01 0.  1.
</event>
<event>
 7   0  0.6206631E-02  0.9118800E+02  0.7818608E-02  0.1180000E+00
       11   -1    0    0    0    0  0.00000000000E+00  0.00000000000E+00  0.11999999989E+02  0.12000000000E+02  0.51109989000E-03 0.  1.
     -623   -1    0    0    0    0  0.00000000000E+00  0.00000000000E+00  0.42561509872E-11  0.25126700000E+02  0.25126700000E+02 0. -1.
      622    2    1    2    0    0 -0.86311936295E-02 -0.72701215872E-02  0.11709799877E+02  0.11710240876E+02  0.10099942300E+00 0.  0.
       11    1    1    2    0    0  0.92426796534E-02  0.69800719576E-02  0.28952707887E+00  0.28975910539E+00  0.51109989000E-03 0.  1.
     -623    1    1    2    0    0 -0.61148602393E-03  0.29004962950E-03  0.67303366354E-03  0.25126700018E+02  0.25126700000E+02 0. -1.
     -611    1    3    3    0    0  0.58076020126E-02 -0.12600282728E-01  0.11316521847E+02  0.11316534771E+02  0.10000000000E-01 0.  1.
      611    1    3    3    0    0 -0.14438795642E-01  0.53301611406E-02  0.39327802939E+00  0.39370610592E+00  0.10000000000E-01 0. -1.
</event>
<event>
 7   0  0.6206631E-02  0.9118800E+02  0.7818608E-02  0.1180000E+00
       11   -1    0    0    0    0  0.00000000000E+00  0.00000000000E+00  0.11999999989E+02  0.12000000000E+02  0.51109989000E-03 0.  1.
     -623   -1    0    0    0    0  0.00000000000E+00  0.00000000000E+00  0.42561509872E-11  0.25126700000E+02  0.25126700000E+02 0.  1.
      622    2    1    2    0    0  0.38294774740E-01  0.25076919362E-01  0.11455320156E+02  0.11456199946E+02  0.13439485577E+00 0.  0.
       11    1    1    2    0    0 -0.43876894290E-01 -0.10157760411E-01  0.54192639725E+00  0.54379485398E+00  0.51109989000E-03 0.  1.
     -623    1    1    2    0    0  0.55821195499E-02 -0.14919158951E-01  0.27534356237E-02  0.25126705200E+02  0.25126700000E+02 0.  1.
     -611    1    3    3    0    0  0.13629645549E-01  0.84731813659E-02  0.21342911775E+00  0.21426514029E+00  0.10000000000E-01 0. -1.
      611    1    3    3    0    0  0.24665129191E-01  0.16603737997E-01  0.11241891038E+02  0.11241934806E+02  0.10000000000E-01 0.  1.
</event>
<event>
 7   0  0.6206631E-02  0.9118800E+02  0.7818608E-02  0.1180000E+00
       11   -1    0    0    0    0  0.00000000000E+00  0.00000000000E+00  0.11999999989E+02  0.12000000000E+02  0.51109989000E-03 0.  1.
     -623   -1    0    0    0    0  0.00000000000E+00  0.00000000000E+00  0.42561509872E-11  0.25126700000E+02  0.25126700000E+02 0. -1.
      622    2    1    2    0    0 -0.21369824490E-01 -0.27672786800E-01  0.11818469308E+02  0.11818873209E+02  0.91239779729E-01 0.  0.
       11    1    1    2    0    0  0.27769287650E-01  0.24139456074E-01  0.17734794981E+00  0.18112537978E+00  0.51109989000E-03 0.  1.
     -623    1    1    2    0    0 -0.63994631602E-02  0.35333307259E-02  0.41827317489E-02  0.25126701412E+02  0.25126700000E+02 0. -1.
     -611    1    3    3    0    0  0.52912219717E-02 -0.36385262701E-01  0.20240020180E+01  0.20243606529E+01  0.10000000000E-01 0. -1.
      611    1    3    3    0    0 -0.26661046462E-01  0.87124759005E-02  0.97944672896E+01  0.97945125558E+01  0.10000000000E-01 0.  1.
</event>
<event>
 7   0  0.6206631E-02  0.9118800E+02  0.7818608E-02  0.1180000E+00
       11   -1    0    0    0    0  0.00000000000E+00  0.00000000000E+00  0.11999999989E+02  0.12000000000E+02  0.51109989000E-03 0.  1.
     -623   -1    0    0    0    0  0.00000000000E+00  0.00000000000E+00  0.42561509872E-11  0.25126700000E+02  0.25126700000E+02 0.  1.
      622    2    1    2    0    0 -0.44243658191E-02  0.27032737741E-01  0.11657170667E+02  0.11657646530E+02  0.10170698336E+00 0.  0.
       11    1    1    2    0    0  0.21879695423E-02 -0.28967563860E-01  0.34111811893E+00  0.34235323754E+00  0.51109989000E-03 0.  1.
     -623    1    1    2    0    0  0.22363962767E-02  0.19348261187E-02  0.17112028229E-02  0.25126700232E+02  0.25126700000E+02 0.  1.
     -611    1    3    3    0    0 -0.24420614449E-01  0.17414384104E-01  0.11160164210E+01  0.11164641863E+01  0.10000000000E-01 0. -1.
      611    1    3    3    0    0  0.19996248630E-01  0.96183536369E-02  0.10541154246E+02  0.10541182344E+02  0.10000000000E-01 0.  1.
</event>
<event>
 7   0  0.6206631E-02  0.9118800E+02  0.7818608E-02  0.1180000E+00
       11   -1    0    0    0    0  0.00000000000E+00  0.00000000000E+00  0.11999999989E+02  0.12000000000E+02  0.51109989000E-03 0.  1.
     -623   -1    0    0    0    0  0.00000000000E+00  0.00000000000E+00  0.42561509872E-11  0.25126700000E+02  0.25126700000E+02 0.  1.
      622    2    1    2    0    0 -0.33616919134E-01 -0.36298405579E-01  0.10831669991E+02  0.10832186704E+02  0.93521720430E-01 0.  0.
       11    1    1    2    0    0  0.37509466246E-01  0.35469021019E-01  0.11666712295E+01  0.11678129262E+01  0.51109989000E-03 0.  1.
     -623    1    1    2    0    0 -0.38925471121E-02  0.82938456062E-03  0.16587681325E-02  0.25126700370E+02  0.25126700000E+02 0.  1.
     -611    1    3    3    0    0 -0.18534451562E-01 -0.61256691379E-01  0.91833229624E+01  0.91835514121E+01  0.10000000000E-01 0.  1.
      611    1    3    3    0    0 -0.15082467572E-01  0.24958285799E-01  0.16483470291E+01  0.16486352918E+01  0.10000000000E-01 0. -1.
</event>
<event>
 7   0  0.6206631E-02  0.9118800E+02  0.7818608E-02  0.1180000E+00
       11   -1    0    0    0    0  0.00000000000E+00  0.00000000000E+00  0.11999999989E+02  0.12000000000E+02  0.51109989000E-03 0.  1.
     -623   -1    0    0    0    0  0.00000000000E+00  0.00000000000E+00  0.42561509872E-11  0.25126700000E+02  0.25126700000E+02 0. -1.
      622    2    1    2    0    0  0.46331453005E-01  0.80115921377E-02  0.63442953200E+01  0.63451771976E+01  0.94761660438E-01 0.  0.
       11    1    1    2    0    0 -0.45855097022E-01 -0.79442601061E-02  0.56546312481E+01  0.56548227748E+01  0.51109989000E-03 0.  1.
     -623    1    1    2    0    0 -0.47635598352E-03 -0.67332031556E-04  0.10734209441E-02  0.25126700028E+02  0.25126700000E+02 0. -1.
     -611    1    3    3    0    0  0.27445516122E-01  0.37214102419E-01  0.14981671125E+01  0.14989138877E+01  0.10000000000E-01 0.  1.
      611    1    3    3    0    0  0.18885936883E-01 -0.29202510281E-01  0.48461282076E+01  0.48462633099E+01  0.10000000000E-01 0. -1.
</event>
<event>
 7   0  0.6206631E-02  0.9118800E+02  0.7818608E-02  0.1180000E+00
       11   -1    0    0    0    0  0.00000000000E+00  0.00000000000E+00  0.11999999989E+02  0.12000000000E+02  0.51109989000E-03 0. -1.
     -623   -1    0    0    0    0  0.00000000000E+00  0.00000000000E+00  0.42561509872E-11  0.25126700000E+02  0.25126700000E+02 0.  1.
      622    2    1    2    0    0  0.11795882197E-01 -0.46042223819E-01  0.53444317887E+01  0.53449823640E+01  0.60218752563E-01 0.  0.
       11    1    1    2    0    0 -0.88852023766E-02  0.40513589603E-01  0.66548875809E+01  0.66550168500E+01  0.51109989000E-03 0. -1.
     -623    1    1    2    0    0 -0.29106798206E-02  0.55286342154E-02  0.68061952664E-03  0.25126700786E+02  0.25126700000E+02 0.  1.
     -611    1    3    3    0    0  0.27474957525E-01 -0.49716568781E-01  0.39122097166E+01  0.39126348510E+01  0.10000000000E-01 0. -1.
      611    1    3    3    0    0 -0.15679075327E-01  0.36743449615E-02  0.14322220721E+01  0.14323475130E+01  0.10000000000E-01 0.  1.
</event>
<event>
 7   0  0.6206631E-02  0.9118800E+02  0.7818608E-02  0.1180000E+00
       11   -1    0    0    0    0  0.00000000000E+00  0.00000000000E+00  0.11999999989E+02  0.12000000000E+02  0.51109989000E-03 0. -1.
     -623   -1    0    0    0    0  0.00000000000E+00  0.00000000000E+00  0.42561509872E-11  0.25126700000E+02  0.25126700000E+02 0. -1.
      622    2    1    2    0    0  0.90299046934E-03 -0.13387340359E-02  0.11983379982E+02  0.11983909799E+02  0.11267504853E+00 0.  0.
       11    1    1    2    0    0  0.18156836493E-02 -0.67351796533E-04  0.15978918760E-01  0.16090006563E-01  0.51109989000E-03 0. -1.
     -623    1    1    2    0    0 -0.27186741186E-02  0.14060858324E-02  0.64108838012E-03  0.25126700195E+02  0.25126700000E+02 0. -1.
     -611    1    3    3    0    0  0.48413907123E-01 -0.17382536312E-01  0.84186372815E+01  0.84188003739E+01  0.10000000000E-01 0. -1.
      611    1    3    3    0    0 -0.47510916654E-01  0.16043802276E-01  0.35647427005E+01  0.35651094249E+01  0.10000000000E-01 0.  1.
</event>
<event>
 7   0  0.6206631E-02  0.9118800E+02  0.7818608E-02  0.1180000E+00
       11   -1    0    0    0    0  0.00000000000E+00  0.00000000000E+00  0.11999999989E+02  0.12000000000E+02  0.51109989000E-03 0. -1.
     -623   -1    0    0    0    0  0.00000000000E+00  0.00000000000E+00  0.42561509872E-11  0.25126700000E+02  0.25126700000E+02 0. -1.
      622    2    1    2    0    0 -0.40077458619E-02 -0.51709747771E-03  0.11990393417E+02  0.11990899072E+02  0.11004514719E+00 0.  0.
       11    1    1    2    0    0  0.40202567397E-02 -0.63566547026E-02  0.50962399700E-02  0.90995828598E-02  0.51109989000E-03 0. -1.
     -623    1    1    2    0    0 -0.12510877782E-04  0.68737521804E-02  0.45103321686E-02  0.25126701345E+02  0.25126700000E+02 0. -1.
     -611    1    3    3    0    0  0.19748996142E-01  0.29128313468E-01  0.15498509584E+01  0.15502827080E+01  0.10000000000E-01 0. -1.
      611    1    3    3    0    0 -0.23756742004E-01 -0.29645410945E-01  0.10440542459E+02  0.10440616364E+02  0.10000000000E-01 0. -1.
</event>
<event>
 7   0  0.6206631E-02  0.9118800E+02  0.7818608E-02  0.1180000E+00
       11   -1    0    0    0    0  0.00000000000E+00  0.00000000000E+00  0.11999999989E+02  0.12000000000E+02  0.51109989000E-03 0. -1.
     -623   -1    0    0    0    0  0.00000000000E+00  0.00000000000E+00  0.42561509872E-11  0.25126700000E+02  0.25126700000E+02 0.  1.
      622    2    1    2    0    0  0.38674703616E-01  0.23158980483E+00  0.36174582516E+01  0.36257163024E+01  0.68446569747E-01 0.  0.
       11    1    1    2    0    0 -0.28993914538E-01 -0.25441161916E+00  0.83703528560E+01  0.83742685121E+01  0.51109989000E-03 0. -1.
     -623    1    1    2    0    0 -0.96807890781E-02  0.22821814324E-01  0.12188881562E-01  0.25126715185E+02  0.25126700000E+02 0.  1.
     -611    1    3    3    0    0  0.29625579765E-01  0.17157865220E+00  0.21900090008E+01  0.21969424964E+01  0.10000000000E-01 0. -1.
      611    1    3    3    0    0  0.90491238508E-02  0.60011152629E-01  0.14274492508E+01  0.14287738060E+01  0.10000000000E-01 0.  1.
</event>
<event>
 7   0  0.6206631E-02  0.9118800E+02  0.7818608E-02  0.1180000E+00
       11   -1    0    0    0    0  0.00000000000E+00  0.00000000000E+00  0.11999999989E+02  0.12000000000E+02  0.51109989000E-03 0.  1.
     -623   -1    0    0    0    0  0.00000000000E+00  0.00000000000E+00  0.42561509872E-11  0.25126700000E+02  0.25126700000E+02 0.  1.
      622    2    1    2    0    0 -0.19759612555E-01 -0.24156237637E-01  0.10469630694E+02  0.10469896720E+02  0.67797506260E-01 0.  0.
       11    1    1    2    0    0  0.17970571857E-01  0.24078932364E-01  0.15298081035E+01  0.15301032094E+01  0.51109989000E-03 0.  1.
     -623    1    1    2    0    0  0.17890406976E-02  0.77305273610E-04  0.56119146507E-03  0.25126700070E+02  0.25126700000E+02 0.  1.
     -611    1    3    3    0    0  0.14362784728E-01 -0.29610556015E-01  0.68746495433E+01  0.68747355889E+01  0.10000000000E-01 0.  1.
      611    1    3    3    0    0 -0.34122397283E-01  0.54543183778E-02  0.35949811508E+01  0.35951611316E+01  0.10000000000E-01 0. -1.
</event>
<event>
 7   0  0.6206631E-02  0.9118800E+02  0.7818608E-02  0.1180000E+00
       11   -1    0    0    0    0  0.00000000000E+00  0.00000000000E+00  0.11999999989E+02  0.12000000000E+02  0.51109989000E-03 0.  1.
     -623   -1    0    0    0    0  0.00000000000E+00  0.00000000000E+00  0.42561509872E-11  0.25126700000E+02  0.25126700000E+02 0. -1.
      622    2    1    2    0    0  0.46353125343E-01  0.21733647574E-01  0.11037938387E+02  0.11038599140E+02  0.10939000640E+00 0.  0.
       11    1    1    2    0    0 -0.51703981198E-01 -0.14765585025E-01  0.95989421055E+00  0.96139923073E+00  0.51109989000E-03 0.  1.
     -623    1    1    2    0    0  0.53508558555E-02 -0.69680625489E-02  0.21673916465E-02  0.25126701629E+02  0.25126700000E+02 0. -1.
     -611    1    3    3    0    0  0.54575309428E-01 -0.56478635921E-04  0.24693116810E+01  0.24699349476E+01  0.10000000000E-01 0. -1.
      611    1    3    3    0    0 -0.82221840851E-02  0.21790126210E-01  0.85686267059E+01  0.85686641922E+01  0.10000000000E-01 0.  1.
</event>
<event>
 7   0  0.6206631E-02  0.9118800E+02  0.7818608E-02  0.1180000E+00
       11   -1    0    0    0    0  0.00000000000E+00  0.00000000000E+00  0.11999999989E+02  0.12000000000E+02  0.51109989000E-03 0. -1.
     -623   -1    0    0    0    0  0.00000000000E+00  0.00000000000E+00  0.42561509872E-11  0.25126700000E+02  0.25126700000E+02 0. -1.
      622    2    1    2    0    0 -0.75439583508E-01 -0.17259816881E-02  0.19671034776E+01  0.19702676445E+01  0.82245907295E-01 0.  0.
       11    1    1    2    0    0  0.43490261230E-01  0.77758787336E-01  0.10029200994E+02  0.10029596735E+02  0.51109989000E-03 0. -1.
     -623    1    1    2    0    0  0.31949322277E-01 -0.76032805648E-01  0.36955175321E-02  0.25126835620E+02  0.25126700000E+02 0. -1.
     -611    1    3    3    0    0 -0.33472103859E-01  0.26448200056E-01  0.41452131890E+00  0.41683067646E+00  0.10000000000E-01 0. -1.
      611    1    3    3    0    0 -0.41967479649E-01 -0.28174181744E-01  0.15525821587E+01  0.15534369680E+01  0.10000000000E-01 0.  1.
</event>
<event>
 7   0  0.6206631E-02  0.9118800E+02  0.7818608E-02  0.1180000E+00
       11   -1    0    0    0    0  0.00000000000E+00  0.00000000000E+00  0.11999999989E+02  0.12000000000E+02  0.51109989000E-03 0. -1.
     -623   -1    0    0    0    0  0.00000000000E+00  0.00000000000E+00  0.42561509872E-11  0.25126700000E+02  0.25126700000E+02 0.  1.
      622    2    1    2    0    0  0.86165706280E-02 -0.55626960116E-02  0.11963092959E+02  0.11963574212E+02  0.10681567103E+00 0.  0.
       11    1    1    2    0    0 -0.65653931558E-02 -0.12809346420E-01  0.33449669028E-01  0.36418749625E-01  0.51109989000E-03 0. -1.
     -623    1    1    2    0    0 -0.20511774721E-02  0.18372042432E-01  0.34573607358E-02  0.25126707038E+02  0.25126700000E+02 0.  1.
     -611    1    3    3    0    0  0.12603669339E-01  0.39696625279E-01  0.91205607329E+01  0.91206613114E+01  0.10000000000E-01 0. -1.
      611    1    3    3    0    0 -0.39870987106E-02 -0.45259321291E-01  0.28425322265E+01  0.28429129008E+01  0.10000000000E-01 0. -1.
</event>
<event>
 7   0  0.6206631E-02  0.9118800E+02  0.7818608E-02  0.1180000E+00
       11   -1    0    0    0    0  0.00000000000E+00  0.00000000000E+00  0.11999999989E+02  0.12000000000E+02  0.51109989000E-03 0. -1.
     -623   -1    0    0    0    0  0.00000000000E+00  0.00000000000E+00  0.42561509872E-11  0.25126700000E+02  0.25126700000E+02 0.  1.
      622    2    1    2    0    0 -0.26829237513E-02  0.10852378716E-01  0.11100325900E+02  0.11100646954E+02  0.83682332540E-01 0.  0.
       11    1    1    2    0    0  0.54818265904E-02 -0.11994940581E-01  0.89925601371E+00  0.89935286091E+00  0.51109989000E-03 0. -1.
     -623    1    1    2    0    0 -0.27989028391E-02  0.11425618650E-02  0.41807539189E-03  0.25126700185E+02  0.25126700000E+02 0.  1.
     -611    1    3    3    0    0  0.15796333032E-01 -0.59511510827E-02  0.99005272441E+01  0.99005466844E+01  0.10000000000E-01 0. -1.
      611    1    3    3    0    0 -0.18479256783E-01  0.16803529798E-01  0.11997986559E+01  0.12001002693E+01  0.10000000000E-01 0.  1.
</event>
<event>
 7   0  0.6206631E-02  0.9118800E+02  0.7818608E-02  0.1180000E+00
       11   -1    0    0    0    0  0.00000000000E+00  0.00000000000E+00  0.11999999989E+02  0.12000000000E+02  0.51109989000E-03 0.  1.
     -623   -1    0    0    0    0  0.00000000000E+00  0.00000000000E+00  0.42561509872E-11  0.25126700000E+02  0.25126700000E+02 0. -1.
      622    2    1    2    0    0  0.44848733871E-02 -0.95139942486E-02  0.10327821630E+02  0.10328224313E+02  0.90593557176E-01 0.  0.
       11    1    1    2    0    0 -0.10747584592E-01  0.97765943198E-02  0.16717116878E+01  0.16717749013E+01  0.51109989000E-03 0.  1.
     -623    1    1    2    0    0  0.62627112047E-02 -0.26260007124E-03  0.46667106925E-03  0.25126700786E+02  0.25126700000E+02 0. -1.
     -611    1    3    3    0    0  0.42915522277E-02 -0.40100755007E-01  0.86162281352E+01  0.86163283228E+01  0.10000000000E-01 0.  1.
      611    1    3    3    0    0  0.19332115945E-03  0.30586760759E-01  0.17115934951E+01  0.17118959897E+01  0.10000000000E-01 0. -1.
</event>
<event>
 7   0  0.6206631E-02  0.9118800E+02  0.7818608E-02  0.1180000E+00
       11   -1    0    0    0    0  0.00000000000E+00  0.00000000000E+00  0.11999999989E+02  0.12000000000E+02  0.51109989000E-03 0.  1.
     -623   -1    0    0    0    0  0.00000000000E+00  0.00000000000E+00  0.42561509872E-11  0.25126700000E+02  0.25126700000E+02 0. -1.
      622    2    1    2    0    0  0.19810424654E-02  0.27298057045E-02  0.11955929355E+02  0.11956262172E+02  0.89145952682E-01 0.  0.
       11    1    1    2    0    0  0.95189908290E-03 -0.24411319305E-02  0.43656107459E-01  0.43737651727E-01  0.51109989000E-03 0.  1.
     -623    1    1    2    0    0 -0.29329415483E-02 -0.28867377400E-03  0.41452636493E-03  0.25126700176E+02  0.25126700000E+02 0. -1.
     -611    1    3    3    0    0  0.17147267437E-01  0.19455457083E-01  0.10931199971E+02  0.10931235307E+02  0.10000000000E-01 0.  1.
      611    1    3    3    0    0 -0.15166224972E-01 -0.16725651378E-01  0.10247293847E+01  0.10250268649E+01  0.10000000000E-01 0. -1.
</event>
<event>
 7   0  0.6206631E-02  0.9118800E+02  0.7818608E-02  0.1180000E+00
       11   -1    0    0    0    0  0.00000000000E+00  0.00000000000E+00  0.11999999989E+02  0.12000000000E+02  0.51109989000E-03 0.  1.
     -623   -1    0    0    0    0  0.00000000000E+00  0.00000000000E+00  0.42561509872E-11  0.25126700000E+02  0.25126700000E+02 0.  1.
      622    2    1    2    0    0  0.19161154667E-01 -0.12901081301E-02  0.11157485800E+02  0.11157954286E+02  0.10042734885E+00 0.  0.
       11    1    1    2    0    0 -0.18387058521E-01  0.21419066922E-02  0.84184202295E+00  0.84204567840E+00  0.51109989000E-03 0.  1.
     -623    1    1    2    0    0 -0.77409614617E-03 -0.85179856210E-03  0.67216571527E-03  0.25126700035E+02  0.25126700000E+02 0.  1.
     -611    1    3    3    0    0  0.32654437165E-01  0.41132539910E-01  0.73650407439E+01  0.73652347796E+01  0.10000000000E-01 0.  1.
      611    1    3    3    0    0 -0.13493282497E-01 -0.42422648040E-01  0.37924450565E+01  0.37927195067E+01  0.10000000000E-01 0. -1.
</event>
<event>
 7   0  0.6206631E-02  0.9118800E+02  0.7818608E-02  0.1180000E+00
       11   -1    0    0    0    0  0.00000000000E+00  0.00000000000E+00  0.11999999989E+02  0.12000000000E+02  0.51109989000E-03 0.  1.
     -623   -1    0    0    0    0  0.00000000000E+00  0.00000000000E+00  0.42561509872E-11  0.25126700000E+02  0.25126700000E+02 0. -1.
      622    2    1    2    0    0 -0.54125675471E-02  0.26909207535E-01  0.67110314616E+01  0.67129209816E+01  0.15688028617E+00 0.  0.
       11    1    1    2    0    0  0.82776474535E-02 -0.27769118203E-01  0.52869993327E+01  0.52870787632E+01  0.51109989000E-03 0.  1.
     -623    1    1    2    0    0 -0.28650799064E-02  0.85991066835E-03  0.19691947891E-02  0.25126700255E+02  0.25126700000E+02 0. -1.
     -611    1    3    3    0    0 -0.22949689376E-01 -0.35302298789E-01  0.54670560697E+01  0.54672273603E+01  0.10000000000E-01 0. -1.
      611    1    3    3    0    0  0.17537121829E-01  0.62211506324E-01  0.12439753920E+01  0.12456936213E+01  0.10000000000E-01 0.  1.
</event>
<event>
 7   0  0.6206631E-02  0.9118800E+02  0.7818608E-02  0.1180000E+00
       11   -1    0    0    0    0  0.00000000000E+00  0.00000000000E+00  0.11999999989E+02  0.12000000000E+02  0.51109989000E-03 0.  1.
     -623   -1    0    0    0    0  0.00000000000E+00  0.00000000000E+00  0.42561509872E-11  0.25126700000E+02  0.25126700000E+02 0. -1.
      622    2    1    2    0    0 -0.15007844898E-01 -0.36067726387E-01  0.11519070167E+02  0.11520092892E+02  0.14844739426E+00 0.  0.
       11    1    1    2    0    0  0.22313447027E-01  0.26688497683E-01  0.47864141629E+00  0.47990419089E+00  0.51109989000E-03 0.  1.
     -623    1    1    2    0    0 -0.73056021291E-02  0.93792287044E-02  0.22884062561E-02  0.25126702917E+02  0.25126700000E+02 0. -1.
     -611    1    3    3    0    0 -0.54218526065E-01  0.12629476431E-01  0.91558186483E+01  0.91559933526E+01  0.10000000000E-01 0.  1.
      611    1    3    3    0    0  0.39210681168E-01 -0.48697202818E-01  0.23632515183E+01  0.23640995397E+01  0.10000000000E-01 0. -1.
</event>
<event>
 7   0  0.6206631E-02  0.9118800E+02  0.7818608E-02  0.1180000E+00
       11   -1    0    0    0    0  0.00000000000E+00  0.00000000000E+00  0.11999999989E+02  0.12000000000E+02  0.51109989000E-03 0.  1.
     -623   -1    0    0    0    0  0.00000000000E+00  0.00000000000E+00  0.42561509872E-11  0.25126700000E+02  0.25126700000E+02 0. -1.
      622    2    1    2    0    0  0.11479274779E+00 -0.35586981002E-01  0.97156575910E+01  0.97169591747E+01  0.10416031045E+00 0.  0.
       11    1    1    2    0    0 -0.12006198433E+00  0.36177359898E-01  0.22795935743E+01  0.22830398171E+01  0.51109989000E-03 0.  1.
     -623    1    1    2    0    0  0.52692365341E-02 -0.59037889572E-03  0.47488239107E-02  0.25126701008E+02  0.25126700000E+02 0. -1.
     -611    1    3    3    0    0 -0.41558887047E-03 -0.33606563663E-01  0.11882572994E+01  0.11887745722E+01  0.10000000000E-01 0. -1.
      611    1    3    3    0    0  0.11520833666E+00 -0.19804173391E-02  0.85274002916E+01  0.85281846026E+01  0.10000000000E-01 0.  1.
</event>
<event>
 7   0  0.6206631E-02  0.9118800E+02  0.7818608E-02  0.1180000E+00
       11   -1    0    0    0    0  0.00000000000E+00  0.00000000000E+00  0.11999999989E+02  0.12000000000E+02  0.51109989000E-03 0. -1.
     -623   -1    0    0    0    0  0.00000000000E+00  0.00000000000E+00  0.42561509872E-11  0.25126700000E+02  0.25126700000E+02 0. -1.
      622    2    1    2    0    0 -0.66873238377E-03  0.45786609689E-03  0.11665060508E+02  0.11665369269E+02  0.84869770715E-01 0.  0.
       11    1    1    2    0    0 -0.13785671002E-02  0.86895227734E-04  0.33462739850E+00  0.33463063973E+00  0.51109989000E-03 0. -1.
     -623    1    1    2    0    0  0.20472994840E-02 -0.54476132462E-03  0.31208294508E-03  0.25126700091E+02  0.25126700000E+02 0. -1.
     -611    1    3    3    0    0 -0.35887940493E-01  0.19279136634E-01  0.70666885660E+01  0.70668130666E+01  0.10000000000E-01 0. -1.
      611    1    3    3    0    0  0.35219208109E-01 -0.18821270537E-01  0.45983719417E+01  0.45985562025E+01  0.10000000000E-01 0.  1.
</event>
<event>
 7   0  0.6206631E-02  0.9118800E+02  0.7818608E-02  0.1180000E+00
       11   -1    0    0    0    0  0.00000000000E+00  0.00000000000E+00  0.11999999989E+02  0.12000000000E+02  0.51109989000E-03 0.  1.
     -623   -1    0    0    0    0  0.00000000000E+00  0.00000000000E+00  0.42561509872E-11  0.25126700000E+02  0.25126700000E+02 0. -1.
      622    2    1    2    0    0  0.41777428682E-02 -0.43587766666E-02  0.11976691932E+02  0.11977136680E+02  0.10303864380E+00 0.  0.
       11    1    1    2    0    0 -0.55465199426E-02  0.28716902155E-02  0.21987596004E-01  0.22863203829E-01  0.51109989000E-03 0.  1.
     -623    1    1    2    0    0  0.13687770744E-02  0.14870864511E-02  0.13204608132E-02  0.25126700116E+02  0.25126700000E+02 0. -1.
     -611    1    3    3    0    0  0.14031998453E-01 -0.19704007140E-01  0.80510666643E+00  0.80553205350E+00  0.10000000000E-01 0.  1.
      611    1    3    3    0    0 -0.98542555851E-02  0.15345230473E-01  0.11171585266E+02  0.11171604627E+02  0.10000000000E-01 0.  1.
</event>
<event>
 7   0  0.6206631E-02  0.9118800E+02  0.7818608E-02  0.1180000E+00
       11   -1    0    0    0    0  0.00000000000E+00  0.00000000000E+00  0.11999999989E+02  0.12000000000E+02  0.51109989000E-03 0. -1.
     -623   -1    0    0    0    0  0.00000000000E+00  0.00000000000E+00  0.42561509872E-11  0.25126700000E+02  0.25126700000E+02 0. -1.
      622    2    1    2    0    0 -0.14188977096E-01  0.27198988672E-01  0.11279707002E+02  0.11280845073E+02  0.15727174754E+00 0.  0.
       11    1    1    2    0    0  0.17465103691E-01 -0.24211254677E-01  0.71853439842E+00  0.71915447411E+00  0.51109989000E-03 0. -1.
     -623    1    1    2    0    0 -0.32761265951E-02 -0.29877339955E-02  0.17585887642E-02  0.25126700453E+02  0.25126700000E+02 0. -1.
     -611    1    3    3    0    0 -0.58245523743E-01  0.15991069116E-01  0.10143837934E+02  0.10144022687E+02  0.10000000000E-01 0. -1.
      611    1    3    3    0    0  0.44056546647E-01  0.11207919556E-01  0.11358690681E+01  0.11368223857E+01  0.10000000000E-01 0.  1.
</event>
<event>
 7   0  0.6206631E-02  0.9118800E+02  0.7818608E-02  0.1180000E+00
       11   -1    0    0    0    0  0.00000000000E+00  0.00000000000E+00  0.11999999989E+02  0.12000000000E+02  0.51109989000E-03 0. -1.
     -623   -1    0    0    0    0  0.00000000000E+00  0.00000000000E+00  0.42561509872E-11  0.25126700000E+02  0.25126700000E+02 0. -1.
      622    2    1    2    0    0 -0.29405908704E-02 -0.98888604784E-04  0.11992555946E+02  0.11992904392E+02  0.91372797629E-01 0.  0.
       11    1    1    2    0    0  0.30736274826E-02  0.63071305408E-03  0.63435804261E-02  0.70955775382E-02  0.51109989000E-03 0. -1.
     -623    1    1    2    0    0 -0.13303661218E-03 -0.53182444929E-03  0.11004626145E-02  0.25126700030E+02  0.25126700000E+02 0. -1.
     -611    1    3    3    0    0  0.45301505151E-02  0.41619629678E-01  0.78885283782E+01  0.78886458083E+01  0.10000000000E-01 0. -1.
      611    1    3    3    0    0 -0.74707413855E-02 -0.41718518283E-01  0.41040275679E+01  0.41042585840E+01  0.10000000000E-01 0.  1.
</event>
<event>
 7   0  0.6206631E-02  0.9118800E+02  0.7818608E-02  0.1180000E+00
       11   -1    0    0    0    0  0.00000000000E+00  0.00000000000E+00  0.11999999989E+02  0.12000000000E+02  0.51109989000E-03 0.  1.
     -623   -1    0    0    0    0  0.00000000000E+00  0.00000000000E+00  0.42561509872E-11  0.25126700000E+02  0.25126700000E+02 0.  1.
      622    2    1    2    0    0  0.37843653406E-02 -0.39172348915E-02  0.11976092471E+02  0.11976888247E+02  0.13795479180E+00 0.  0.
       11    1    1    2    0    0  0.45355720467E-03 -0.90831718073E-02  0.21236847202E-01  0.23107891000E-01  0.51109989000E-03 0.  1.
     -623    1    1    2    0    0 -0.42379225453E-02  0.13000406699E-01  0.26706707161E-02  0.25126703862E+02  0.25126700000E+02 0.  1.
     -611    1    3    3    0    0 -0.22680301420E-01 -0.46753800535E-01  0.21141870864E+01  0.21148492500E+01  0.10000000000E-01 0. -1.
      611    1    3    3    0    0  0.26464666761E-01  0.42836565644E-01  0.98619053848E+01  0.98620389965E+01  0.10000000000E-01 0.  1.
</event>
<event>
 7   0  0.6206631E-02  0.9118800E+02  0.7818608E-02  0.1180000E+00
       11   -1    0    0    0    0  0.00000000000E+00  0.00000000000E+00  0.11999999989E+02  0.12000000000E+02  0.51109989000E-03 0. -1.
     -623   -1    0    0    0    0  0.00000000000E+00  0.00000000000E+00  0.42561509872E-11  0.25126700000E+02  0.25126700000E+02 0.  1.
      622    2    1    2    0    0  0.80908297373E-02  0.12779853902E-01  0.10131499857E+02  0.10131901420E+02  0.88928277902E-01 0.  0.
       11    1    1    2    0    0 -0.98810016419E-02 -0.13580641689E-01  0.18680229316E+01  0.18680984990E+01  0.51109989000E-03 0. -1.
     -623    1    1    2    0    0  0.17901719046E-02  0.80078778690E-03  0.47720028794E-03  0.25126700081E+02  0.25126700000E+02 0.  1.
     -611    1    3    3    0    0 -0.32674870861E-01  0.26569296492E-01  0.62558307632E+01  0.62559805077E+01  0.10000000000E-01 0. -1.
      611    1    3    3    0    0  0.40765700599E-01 -0.13789442590E-01  0.38756690941E+01  0.38759209122E+01  0.10000000000E-01 0.  1.
</event>
<event>
 7   0  0.6206631E-02  0.9118800E+02  0.7818608E-02  0.1180000E+00
       11   -1    0    0    0    0  0.00000000000E+00  0.00000000000E+00  0.11999999989E+02  0.12000000000E+02  0.51109989000E-03 0.  1.
     -623   -1    0    0    0    0  0.00000000000E+00  0.00000000000E+00  0.42561509872E-11  0.25126700000E+02  0.25126700000E+02 0.  1.
      622    2    1    2    0    0 -0.58852172998E-02  0.15098626853E-01  0.10012773685E+02  0.10013137984E+02  0.83861837759E-01 0.  0.
       11    1    1    2    0    0  0.98031534218E-02 -0.10660489795E-01  0.19868084652E+01  0.19868613154E+01  0.51109989000E-03 0.  1.
     -623    1    1    2    0    0 -0.39179361220E-02 -0.44381370577E-02  0.41783879322E-03  0.25126700701E+02  0.25126700000E+02 0.  1.
     -611    1    3    3    0    0 -0.54621392366E-03  0.46691893321E-01  0.42880250911E+01  0.42882909898E+01  0.10000000000E-01 0. -1.
      611    1    3    3    0    0 -0.53390033762E-02 -0.31593266468E-01  0.57247485940E+01  0.57248469939E+01  0.10000000000E-01 0.  1.
</event>
<event>
 7   0  0.6206631E-02  0.9118800E+02  0.7818608E-02  0.1180000E+00
       11   -1    0    0    0    0  0.00000000000E+00  0.00000000000E+00  0.11999999989E+02  0.12000000000E+02  0.51109989000E-03 0. -1.
     -623   -1    0    0    0    0  0.00000000000E+00  0.00000000000E+00  0.42561509872E-11  0.25126700000E+02  0.25126700000E+02 0.  1.
      622    2    1    2    0    0 -0.96468759627E-02  0.88340503178E-02  0.11931567682E+02  0.11931941882E+02  0.93587446306E-01 0.  0.
       11    1    1    2    0    0  0.16399040375E-02  0.76067448224E-02  0.67603156504E-01  0.68051449981E-01  0.51109989000E-03 0. -1.
     -623    1    1    2    0    0  0.80069719252E-02 -0.16440795140E-01  0.82915025393E-03  0.25126706668E+02  0.25126700000E+02 0.  1.
     -611    1    3    3    0    0 -0.33146465811E-01  0.87314162467E-02  0.18648263213E+01  0.18651681250E+01  0.10000000000E-01 0.  1.
      611    1    3    3    0    0  0.23499589848E-01  0.10263407113E-03  0.10066741361E+02  0.10066773757E+02  0.10000000000E-01 0. -1.
</event>
<event>
 7   0  0.6206631E-02  0.9118800E+02  0.7818608E-02  0.1180000E+00
       11   -1    0    0    0    0  0.00000000000E+00  0.00000000000E+00  0.11999999989E+02  0.12000000000E+02  0.51109989000E-03 0.  1.
     -623   -1    0    0    0    0  0.00000000000E+00  0.00000000000E+00  0.42561509872E-11  0.25126700000E+02  0.25126700000E+02 0. -1.
      622    2    1    2    0    0 -0.17421118781E-03 -0.17172605159E-02  0.11984467202E+02  0.11984815305E+02  0.91327927898E-01 0.  0.
       11    1    1    2    0    0 -0.38182249846E-02 -0.19138066154E-02  0.14562076731E-01  0.15184096933E-01  0.51109989000E-03 0.  1.
     -623    1    1    2    0    0  0.39924361724E-02  0.36310671313E-02  0.97071022622E-03  0.25126700598E+02  0.25126700000E+02 0. -1.
     -611    1    3    3    0    0 -0.15009395974E-01  0.15352018510E-01  0.87475237366E+00  0.87507295791E+00  0.10000000000E-01 0. -1.
      611    1    3    3    0    0  0.14835184786E-01 -0.17069279026E-01  0.11109714829E+02  0.11109742347E+02  0.10000000000E-01 0.  1.
</event>
<event>
 7   0  0.6206631E-02  0.9118800E+02  0.7818608E-02  0.1180000E+00
       11   -1    0    0    0    0  0.00000000000E+00  0.00000000000E+00  0.11999999989E+02  0.12000000000E+02  0.51109989000E-03 0. -1.
     -623   -1    0    0    0    0  0.00000000000E+00  0.00000000000E+00  0.42561509872E-11  0.25126700000E+02  0.25126700000E+02 0.  1.
      622    2    1    2    0    0 -0.10948961760E-01 -0.66860297455E-02  0.11798937358E+02  0.11799518095E+02  0.11636114988E+00 0.  0.
       11    1    1    2    0    0  0.10506341747E-01  0.53659352406E-02  0.20013379091E+00  0.20048184946E+00  0.51109989000E-03 0. -1.
     -623    1    1    2    0    0  0.44262001321E-03  0.13200945048E-02  0.92884057713E-03  0.25126700056E+02  0.25126700000E+02 0.  1.
     -611    1    3    3    0    0 -0.37107535295E-01  0.13097479939E-01  0.10631016985E+02  0.10631094518E+02  0.10000000000E-01 0. -1.
      611    1    3    3    0    0  0.26158573535E-01 -0.19783509684E-01  0.11679203725E+01  0.11684235767E+01  0.10000000000E-01 0.  1.
</event>
<event>
 7   0  0.6206631E-02  0.9118800E+02  0.7818608E-02  0.1180000E+00
       11   -1    0    0    0    0  0.00000000000E+00  0.00000000000E+00  0.11999999989E+02  0.12000000000E+02  0.51109989000E-03 0. -1.
     -623   -1    0    0    0    0  0.00000000000E+00  0.00000000000E+00  0.42561509872E-11  0.25126700000E+02  0.25126700000E+02 0.  1.
      622    2    1    2    0    0 -0.31254940254E-01  0.76106807780E-01  0.10086932061E+02  0.10087897243E+02  0.11270875680E+00 0.  0.
       11    1    1    2    0    0  0.25758420047E-01 -0.79911040699E-01  0.19102574225E+01  0.19121017107E+01  0.51109989000E-03 0. -1.
     -623    1    1    2    0    0  0.54965202061E-02  0.38042329191E-02  0.28105056385E-02  0.25126701046E+02  0.25126700000E+02 0.  1.
     -611    1    3    3    0    0 -0.18409626837E-01  0.10008198756E+00  0.89934020167E+01  0.89939832751E+01  0.10000000000E-01 0. -1.
      611    1    3    3    0    0 -0.12845313416E-01 -0.23975179779E-01  0.10935300443E+01  0.10939139679E+01  0.10000000000E-01 0.  1.
</event>
<event>
 7   0  0.6206631E-02  0.9118800E+02  0.7818608E-02  0.1180000E+00
       11   -1    0    0    0    0  0.00000000000E+00  0.00000000000E+00  0.11999999989E+02  0.12000000000E+02  0.51109989000E-03 0. -1.
     -623   -1    0    0    0    0  0.00000000000E+00  0.00000000000E+00  0.42561509872E-11  0.25126700000E+02  0.25126700000E+02 0. -1.
      622    2    1    2    0    0 -0.28286413765E-01  0.70622086146E-02  0.73643272492E+01  0.73645497364E+01  0.49264491671E-01 0.  0.
       11    1    1    2    0    0  0.29312251181E-01 -0.87783867139E-02  0.46353491626E+01  0.46354501819E+01  0.51109989000E-03 0. -1.
     -623    1    1    2    0    0 -0.10258374165E-02  0.17161780992E-02  0.32357718908E-03  0.25126700082E+02  0.25126700000E+02 0. -1.
     -611    1    3    3    0    0 -0.30622965827E-01  0.13661416492E-01  0.68020326166E+01  0.68021226186E+01  0.10000000000E-01 0.  1.
      611    1    3    3    0    0  0.23365520622E-02 -0.65992078775E-02  0.56229463258E+00  0.56242711781E+00  0.10000000000E-01 0.  1.
</event>
<event>
 7   0  0.6206631E-02  0.9118800E+02  0.7818608E-02  0.1180000E+00
       11   -1    0    0    0    0  0.00000000000E+00  0.00000000000E+00  0.11999999989E+02  0.12000000000E+02  0.51109989000E-03 0.  1.
     -623   -1    0    0    0    0  0.00000000000E+00  0.00000000000E+00  0.42561509872E-11  0.25126700000E+02  0.25126700000E+02 0.  1.
      622    2    1    2    0    0  0.92305200282E-02 -0.45574589956E-02  0.11955585655E+02  0.11956197729E+02  0.12053965457E+00 0.  0.
       11    1    1    2    0    0 -0.52529851317E-02  0.55191658705E-02  0.43131086643E-01  0.43801905241E-01  0.51109989000E-03 0.  1.
     -623    1    1    2    0    0 -0.39775348965E-02 -0.96170687489E-03  0.12832477264E-02  0.25126700366E+02  0.25126700000E+02 0.  1.
     -611    1    3    3    0    0  0.32254044930E-01 -0.44566646200E-01  0.94594664676E+01  0.94596317244E+01  0.10000000000E-01 0.  1.
      611    1    3    3    0    0 -0.23023524902E-01  0.40009187205E-01  0.24961191871E+01  0.24965660043E+01  0.10000000000E-01 0. -1.
</event>
<event>
 7   0  0.6206631E-02  0.9118800E+02  0.7818608E-02  0.1180000E+00
       11   -1    0    0    0    0  0.00000000000E+00  0.00000000000E+00  0.11999999989E+02  0.12000000000E+02  0.51109989000E-03 0.  1.
     -623   -1    0    0    0    0  0.00000000000E+00  0.00000000000E+00  0.42561509872E-11  0.25126700000E+02  0.25126700000E+02 0. -1.
      622    2    1    2    0    0 -0.14032343378E-01  0.14985428410E-01  0.68701179999E+01  0.68711580328E+01  0.11777057551E+00 0.  0.
       11    1    1    2    0    0  0.61732089675E-01 -0.26316988578E-01  0.51283550111E+01  0.51287940899E+01  0.51109989000E-03 0.  1.
     -623    1    1    2    0    0 -0.47699746298E-01  0.11331560168E-01  0.15269780252E-02  0.25126747877E+02  0.25126700000E+02 0. -1.
     -611    1    3    3    0    0 -0.34314018125E-01 -0.40588062397E-01  0.42986203865E+01  0.42989605802E+01  0.10000000000E-01 0. -1.
      611    1    3    3    0    0  0.20281674748E-01  0.55573490807E-01  0.25714976134E+01  0.25721974526E+01  0.10000000000E-01 0.  1.
</event>
<event>
 7   0  0.6206631E-02  0.9118800E+02  0.7818608E-02  0.1180000E+00
       11   -1    0    0    0    0  0.00000000000E+00  0.00000000000E+00  0.11999999989E+02  0.12000000000E+02  0.51109989000E-03 0.  1.
     -623   -1    0    0    0    0  0.00000000000E+00  0.00000000000E+00  0.42561509872E-11  0.25126700000E+02  0.25126700000E+02 0. -1.
      622    2    1    2    0    0  0.13377644051E-01 -0.43918170923E-01  0.85065645554E+01  0.85068831416E+01  0.57554173055E-01 0.  0.
       11    1    1    2    0    0 -0.15140041145E-03  0.44560087675E-01  0.34928290930E+01  0.34931133618E+01  0.51109989000E-03 0.  1.
     -623    1    1    2    0    0 -0.13226243639E-01 -0.64191675128E-03  0.60634069189E-03  0.25126703497E+02  0.25126700000E+02 0. -1.
     -611    1    3    3    0    0 -0.10870319880E-01 -0.25877730886E-01  0.18288880433E+01  0.18291307487E+01  0.10000000000E-01 0.  1.
      611    1    3    3    0    0  0.24247963930E-01 -0.18040440037E-01  0.66776765121E+01  0.66777523929E+01  0.10000000000E-01 0. -1.
</event>
<event>
 6   0  0.6206631E-02  0.9118800E+02  0.7818608E-02  0.1180000E+00
       11   -1    0    0    0    0  0.00000000000E+00  0.00000000000E+00  0.11999999989E+02  0.12000000000E+02  0.51109989000E-03 0.  1.
     -623   -1    0    0    0    0  0.00000000000E+00  0.00000000000E+00  0.42561509872E-11  0.25126700000E+02  0.25126700000E+02 0. -1.
       11    1    1    2    0    0  0.39370036239E-03 -0.19529726829E-01  0.27191539374E+00  0.27261659488E+00  0.51109989000E-03 0.  1.
     -623    1    1    2    0    0  0.72700045231E-02 -0.87248079408E-02  0.36977543414E-02  0.25126702839E+02  0.25126700000E+02 0. -1.
     -611    1    1    2    0    0 -0.67995394980E-01 -0.98307095316E-01  0.43460408515E+01  0.43476957968E+01  0.10000000000E-01 0. -1.
      611    1    1    2    0    0  0.60331690095E-01  0.12656163008E+00  0.73783459895E+01  0.73796847697E+01  0.10000000000E-01 0.  1.
</event>
<event>
 7   0  0.6206631E-02  0.9118800E+02  0.7818608E-02  0.1180000E+00
       11   -1    0    0    0    0  0.00000000000E+00  0.00000000000E+00  0.11999999989E+02  0.12000000000E+02  0.51109989000E-03 0.  1.
     -623   -1    0    0    0    0  0.00000000000E+00  0.00000000000E+00  0.42561509872E-11  0.25126700000E+02  0.25126700000E+02 0.  1.
      622    2    1    2    0    0  0.80672581635E-02 -0.36698842250E-01  0.10144020519E+02  0.10144713127E+02  0.11242884482E+00 0.  0.
       11    1    1    2    0    0 -0.16870870119E-01  0.33292125045E-01  0.18549095568E+01  0.18552850771E+01  0.51109989000E-03 0.  1.
     -623    1    1    2    0    0  0.88036119552E-02  0.34067172049E-02  0.10699128948E-02  0.25126701796E+02  0.25126700000E+02 0.  1.
     -611    1    3    3    0    0  0.38160015137E-01  0.11422933480E-01  0.17002302716E+01  0.17007262115E+01  0.10000000000E-01 0. -1.
      611    1    3    3    0    0 -0.30092756973E-01 -0.48121775730E-01  0.84437902478E+01  0.84439869155E+01  0.10000000000E-01 0.  1.
</event>
<event>
 7   0  0.6206631E-02  0.9118800E+02  0.7818608E-02  0.1180000E+00
       11   -1    0    0    0    0  0.00000000000E+00  0.00000000000E+00  0.11999999989E+02  0.12000000000E+02  0.51109989000E-03 0. -1.
     -623   -1    0    0    0    0  0.00000000000E+00  0.00000000000E+00  0.42561509872E-11  0.25126700000E+02  0.25126700000E+02 0.  1.
      622    2    1    2    0    0  0.19407920021E-01  0.60130485836E-01  0.90844716086E+01  0.90852425604E+01  0.10007812222E+00 0.  0.
       11    1    1    2    0    0 -0.92239127965E-01  0.11090777865E-01  0.29130697237E+01  0.29145508296E+01  0.51109989000E-03 0. -1.
     -623    1    1    2    0    0  0.72831207943E-01 -0.71221263702E-01  0.24586568186E-02  0.25126906610E+02  0.25126700000E+02 0.  1.
     -611    1    3    3    0    0  0.11785193399E-01  0.84249372648E-01  0.78715032619E+01  0.78719692866E+01  0.10000000000E-01 0. -1.
      611    1    3    3    0    0  0.76227266225E-02 -0.24118886811E-01  0.12129683468E+01  0.12132732738E+01  0.10000000000E-01 0.  1.
</event>
<event>
 7   0  0.6206631E-02  0.9118800E+02  0.7818608E-02  0.1180000E+00
       11   -1    0    0    0    0  0.00000000000E+00  0.00000000000E+00  0.11999999989E+02  0.12000000000E+02  0.51109989000E-03 0.  1.
     -623   -1    0    0    0    0  0.00000000000E+00  0.00000000000E+00  0.42561509872E-11  0.25126700000E+02  0.25126700000E+02 0. -1.
      622    2    1    2    0    0  0.19117000781E-01 -0.18329361606E-01  0.11146539868E+02  0.11147335494E+02  0.13052267257E+00 0.  0.
       11    1    1    2    0    0 -0.14533718932E-01  0.16225367569E-01  0.85238553720E+00  0.85266397648E+00  0.51109989000E-03 0.  1.
     -623    1    1    2    0    0 -0.45832818485E-02  0.21039940367E-02  0.10745837669E-02  0.25126700529E+02  0.25126700000E+02 0. -1.
     -611    1    3    3    0    0  0.33004678845E-01 -0.33074568209E-01  0.14837365503E+01  0.14845057718E+01  0.10000000000E-01 0. -1.
      611    1    3    3    0    0 -0.13887678065E-01  0.14745206603E-01  0.96628033178E+01  0.96628297226E+01  0.10000000000E-01 0.  1.
</event>
<event>
 7   0  0.6206631E-02  0.9118800E+02  0.7818608E-02  0.1180000E+00
       11   -1    0    0    0    0  0.00000000000E+00  0.00000000000E+00  0.11999999989E+02  0.12000000000E+02  0.51109989000E-03 0.  1.
     -623   -1    0    0    0    0  0.00000000000E+00  0.00000000000E+00  0.42561509872E-11  0.25126700000E+02  0.25126700000E+02 0. -1.
      622    2    1    2    0    0  0.25891329251E-02  0.24857528056E-02  0.11910030693E+02  0.11910458166E+02  0.10084510694E+00 0.  0.
       11    1    1    2    0    0  0.12172617161E-01  0.33174285609E-01  0.82238998090E-01  0.89511004152E-01  0.51109989000E-03 0.  1.
     -623    1    1    2    0    0 -0.14761750086E-01 -0.35660038415E-01  0.77302981172E-02  0.25126730830E+02  0.25126700000E+02 0. -1.
     -611    1    3    3    0    0  0.32108414027E-01 -0.13148508015E-01  0.17737405971E+01  0.17741080968E+01  0.10000000000E-01 0. -1.
      611    1    3    3    0    0 -0.29519281102E-01  0.15634260820E-01  0.10136290096E+02  0.10136350069E+02  0.10000000000E-01 0.  1.
</event>
<event>
 7   0  0.6206631E-02  0.9118800E+02  0.7818608E-02  0.1180000E+00
       11   -1    0    0    0    0  0.00000000000E+00  0.00000000000E+00  0.11999999989E+02  0.12000000000E+02  0.51109989000E-03 0. -1.
     -623   -1    0    0    0    0  0.00000000000E+00  0.00000000000E+00  0.42561509872E-11  0.25126700000E+02  0.25126700000E+02 0. -1.
      622    2    1    2    0    0  0.14204946674E-01  0.24621563202E-01  0.93324781478E+01  0.93330612391E+01  0.10037785193E+00 0.  0.
       11    1    1    2    0    0  0.97361025610E-02 -0.24681430113E-01  0.26667953119E+01  0.26669273446E+01  0.51109989000E-03 0. -1.
     -623    1    1    2    0    0 -0.23941049235E-01  0.59866911413E-04  0.72652946080E-03  0.25126711416E+02  0.25126700000E+02 0. -1.
     -611    1    3    3    0    0 -0.49156383711E-02 -0.21114450667E-02  0.83070848160E+01  0.83070925576E+01  0.10000000000E-01 0. -1.
      611    1    3    3    0    0  0.19120585045E-01  0.26733008269E-01  0.10253933318E+01  0.10259686815E+01  0.10000000000E-01 0.  1.
</event>
<event>
 7   0  0.6206631E-02  0.9118800E+02  0.7818608E-02  0.1180000E+00
       11   -1    0    0    0    0  0.00000000000E+00  0.00000000000E+00  0.11999999989E+02  0.12000000000E+02  0.51109989000E-03 0.  1.
     -623   -1    0    0    0    0  0.00000000000E+00  0.00000000000E+00  0.42561509872E-11  0.25126700000E+02  0.25126700000E+02 0.  1.
      622    2    1    2    0    0 -0.58908257918E-02  0.23615785626E-01  0.10286224390E+02  0.10286695849E+02  0.95429950782E-01 0.  0.
       11    1    1    2    0    0 -0.17748125558E-01 -0.20101406710E-01  0.17130828389E+01  0.17132927761E+01  0.51109989000E-03 0.  1.
     -623    1    1    2    0    0  0.23638951350E-01 -0.35143789162E-02  0.69276001570E-03  0.25126711375E+02  0.25126700000E+02 0.  1.
     -611    1    3    3    0    0 -0.14377588707E-03  0.39767972667E-01  0.97754304016E+01  0.97755164083E+01  0.10000000000E-01 0.  1.
      611    1    3    3    0    0 -0.57470499048E-02 -0.16152187040E-01  0.51079398858E+00  0.51117944060E+00  0.10000000000E-01 0. -1.
</event>
<event>
 7   0  0.6206631E-02  0.9118800E+02  0.7818608E-02  0.1180000E+00
       11   -1    0    0    0    0  0.00000000000E+00  0.00000000000E+00  0.11999999989E+02  0.12000000000E+02  0.51109989000E-03 0.  1.
     -623   -1    0    0    0    0  0.00000000000E+00  0.00000000000E+00  0.42561509872E-11  0.25126700000E+02  0.25126700000E+02 0.  1.
      622    2    1    2    0    0 -0.61955467437E-01  0.23498396725E-01  0.11148039459E+02  0.11148830366E+02  0.11508298410E+00 0.  0.
       11    1    1    2    0    0  0.65189745351E-01 -0.21212530724E-01  0.84840370744E+00  0.85116907038E+00  0.51109989000E-03 0.  1.
     -623    1    1    2    0    0 -0.32342779140E-02 -0.22858660018E-02  0.35568228249E-02  0.25126700564E+02  0.25126700000E+02 0.  1.
     -611    1    3    3    0    0 -0.73545765577E-01  0.23827625447E-01  0.10919643034E+02  0.10919921278E+02  0.10000000000E-01 0.  1.
      611    1    3    3    0    0  0.11590298139E-01 -0.32922872117E-03  0.22839642476E+00  0.22890908730E+00  0.10000000000E-01 0. -1.
</event>
<event>
 7   0  0.6206631E-02  0.9118800E+02  0.7818608E-02  0.1180000E+00
       11   -1    0    0    0    0  0.00000000000E+00  0.00000000000E+00  0.11999999989E+02  0.12000000000E+02  0.51109989000E-03 0.  1.
     -623   -1    0    0    0    0  0.00000000000E+00  0.00000000000E+00  0.42561509872E-11  0.25126700000E+02  0.25126700000E+02 0.  1.
      622    2    1    2    0    0 -0.29921867916E-03  0.28241578459E-02  0.11996140884E+02  0.11996446015E+02  0.85515019570E-01 0.  0.
       11    1    1    2    0    0 -0.22908888533E-02 -0.14154693944E-02  0.22619171892E-02  0.35537610819E-02  0.51109989000E-03 0.  1.
     -623    1    1    2    0    0  0.25901075324E-02 -0.14086884515E-02  0.15971878408E-02  0.25126700224E+02  0.25126700000E+02 0.  1.
     -611    1    3    3    0    0 -0.40527726414E-01  0.10937811488E-01  0.64402588358E+01  0.64404034038E+01  0.10000000000E-01 0.  1.
      611    1    3    3    0    0  0.40228507735E-01 -0.81136536416E-02  0.55558820483E+01  0.55560426113E+01  0.10000000000E-01 0. -1.
</event>
<event>
 6   0  0.6206631E-02  0.9118800E+02  0.7818608E-02  0.1180000E+00
       11   -1    0    0    0    0  0.00000000000E+00  0.00000000000E+00  0.11999999989E+02  0.12000000000E+02  0.51109989000E-03 0. -1.
     -623   -1    0    0    0    0  0.00000000000E+00  0.00000000000E+00  0.42561509872E-11  0.25126700000E+02  0.25126700000E+02 0. -1.
       11    1    1    2    0    0  0.33082464582E-01 -0.10956882666E+00  0.44405353394E+01  0.44420101462E+01  0.51109989000E-03 0. -1.
     -623    1    1    2    0    0 -0.14076646955E-01 -0.29854469817E-02  0.56422259656E-02  0.25126704754E+02  0.25126700000E+02 0. -1.
     -611    1    1    2    0    0 -0.47377839058E-01  0.92706042913E-01  0.13457909053E+01  0.13498489660E+01  0.10000000000E-01 0.  1.
      611    1    1    2    0    0  0.28372021431E-01  0.19848230733E-01  0.62080315184E+01  0.62081361339E+01  0.10000000000E-01 0. -1.
</event>
<event>
 7   0  0.6206631E-02  0.9118800E+02  0.7818608E-02  0.1180000E+00
       11   -1    0    0    0    0  0.00000000000E+00  0.00000000000E+00  0.11999999989E+02  0.12000000000E+02  0.51109989000E-03 0.  1.
     -623   -1    0    0    0    0  0.00000000000E+00  0.00000000000E+00  0.42561509872E-11  0.25126700000E+02  0.25126700000E+02 0.  1.
      622    2    1    2    0    0 -0.46518978444E-02  0.38738318929E-01  0.11521238782E+02  0.11521565772E+02  0.77540176578E-01 0.  0.
       11    1    1    2    0    0 -0.20935984050E-01  0.24634483418E-01  0.47724721469E+00  0.47834123631E+00  0.51109989000E-03 0.  1.
     -623    1    1    2    0    0  0.25587881894E-01 -0.63372802347E-01  0.15139925913E-02  0.25126792991E+02  0.25126700000E+02 0.  1.
     -611    1    3    3    0    0  0.26667871176E-01  0.32852137908E-01  0.90096950935E+01  0.90098000042E+01  0.10000000000E-01 0.  1.
      611    1    3    3    0    0 -0.31319769020E-01  0.58861810206E-02  0.25115436883E+01  0.25117657680E+01  0.10000000000E-01 0. -1.
</event>
<event>
 7   0  0.6206631E-02  0.9118800E+02  0.7818608E-02  0.1180000E+00
       11   -1    0    0    0    0  0.00000000000E+00  0.00000000000E+00  0.11999999989E+02  0.12000000000E+02  0.51109989000E-03 0. -1.
     -623   -1    0    0    0    0  0.00000000000E+00  0.00000000000E+00  0.42561509872E-11  0.25126700000E+02  0.25126700000E+02 0.  1.
      622    2    1    2    0    0  0.21369934066E-02  0.32905474798E-02  0.11957172459E+02  0.11957508145E+02  0.89512051672E-01 0.  0.
       11    1    1    2    0    0 -0.56421475541E-03 -0.51308260277E-02  0.42173951831E-01  0.42491730375E-01  0.51109989000E-03 0. -1.
     -623    1    1    2    0    0 -0.15727786512E-02  0.18402785479E-02  0.65357787311E-03  0.25126700125E+02  0.25126700000E+02 0.  1.
     -611    1    3    3    0    0  0.32799005879E-01 -0.56784909925E-02  0.21691103262E+01  0.21693887681E+01  0.10000000000E-01 0.  1.
      611    1    3    3    0    0 -0.30662012472E-01  0.89690384723E-02  0.97880621333E+01  0.97881193764E+01  0.10000000000E-01 0. -1.
</event>
<event>
 7   0  0.6206631E-02  0.9118800E+02  0.7818608E-02  0.1180000E+00
       11   -1    0    0    0    0  0.00000000000E+00  0.00000000000E+00  0.11999999989E+02  0.12000000000E+02  0.51109989000E-03 0.  1.
     -623   -1    0    0    0    0  0.00000000000E+00  0.00000000000E+00  0.42561509872E-11  0.25126700000E+02  0.25126700000E+02 0.  1.
      622    2    1    2    0    0  0.15087749566E-01 -0.62853577496E-01  0.10560288202E+02  0.10560738483E+02  0.73021906248E-01 0.  0.
       11    1    1    2    0    0 -0.23484671272E+00 -0.22328298458E-01  0.14186669639E+01  0.14381473315E+01  0.51109989000E-03 0.  1.
     -623    1    1    2    0    0  0.21975896316E+00  0.85181875954E-01  0.21044823632E-01  0.25127814185E+02  0.25126700000E+02 0.  1.
     -611    1    3    3    0    0 -0.15364535027E-01 -0.61826192201E-01  0.63188075663E+01  0.63191366188E+01  0.10000000000E-01 0.  1.
      611    1    3    3    0    0  0.30452284593E-01 -0.10273852944E-02  0.42414806353E+01  0.42416018644E+01  0.10000000000E-01 0. -1.
</event>
<event>
 7   0  0.6206631E-02  0.9118800E+02  0.7818608E-02  0.1180000E+00
       11   -1    0    0    0    0  0.00000000000E+00  0.00000000000E+00  0.11999999989E+02  0.12000000000E+02  0.51109989000E-03 0. -1.
     -623   -1    0    0    0    0  0.00000000000E+00  0.00000000000E+00  0.42561509872E-11  0.25126700000E+02  0.25126700000E+02 0.  1.
      622    2    1    2    0    0  0.45118062996E-02  0.88492112922E-03  0.11965340439E+02  0.11965910149E+02  0.11667366786E+00 0.  0.
       11    1    1    2    0    0  0.21684829660E-02  0.12432531635E-02  0.33993255546E-01  0.34088863909E-01  0.51109989000E-03 0. -1.
     -623    1    1    2    0    0 -0.66802892656E-02 -0.21281742927E-02  0.66629494708E-03  0.25126700987E+02  0.25126700000E+02 0.  1.
     -611    1    3    3    0    0 -0.50906160778E-01  0.19643229987E-01  0.68713981877E+01  0.68716221046E+01  0.10000000000E-01 0. -1.
      611    1    3    3    0    0  0.55417967078E-01 -0.18758308857E-01  0.50939422509E+01  0.50942880445E+01  0.10000000000E-01 0.  1.
</event>
<event>
 7   0  0.6206631E-02  0.9118800E+02  0.7818608E-02  0.1180000E+00
       11   -1    0    0    0    0  0.00000000000E+00  0.00000000000E+00  0.11999999989E+02  0.12000000000E+02  0.51109989000E-03 0. -1.
     -623   -1    0    0    0    0  0.00000000000E+00  0.00000000000E+00  0.42561509872E-11  0.25126700000E+02  0.25126700000E+02 0. -1.
      622    2    1    2    0    0  0.57153425018E-01 -0.13712192669E+00  0.45272680847E+01  0.45309470392E+01  0.10609346836E+00 0.  0.
       11    1    1    2    0    0 -0.45482410095E-01  0.10088801192E+00  0.74682037988E+01  0.74690237168E+01  0.51109989000E-03 0. -1.
     -623    1    1    2    0    0 -0.11671014923E-01  0.36233914766E-01  0.45281056037E-02  0.25126729244E+02  0.25126700000E+02 0. -1.
     -611    1    3    3    0    0 -0.17177413067E-01 -0.69492730374E-01  0.26300723749E+01  0.26310653736E+01  0.10000000000E-01 0.  1.
      611    1    3    3    0    0  0.74330838085E-01 -0.67629196312E-01  0.18971957099E+01  0.18998816656E+01  0.10000000000E-01 0. -1.
</event>
<event>
 7   0  0.6206631E-02  0.9118800E+02  0.7818608E-02  0.1180000E+00
       11   -1    0    0    0    0  0.00000000000E+00  0.00000000000E+00  0.11999999989E+02  0.12000000000E+02  0.51109989000E-03 0.  1.
     -623   -1    0    0    0    0  0.00000000000E+00  0.00000000000E+00  0.42561509872E-11  0.25126700000E+02  0.25126700000E+02 0.  1.
      622    2    1    2    0    0 -0.34246172157E-02  0.41738698636E-02  0.11996048952E+02  0.11996394082E+02  0.90836929209E-01 0.  0.
       11    1    1    2    0    0  0.15749648826E-02 -0.16332236515E-02  0.27553341609E-02  0.36056931832E-02  0.51109989000E-03 0.  1.
     -623    1    1    2    0    0  0.18496523331E-02 -0.25406462122E-02  0.11957024944E-02  0.25126700225E+02  0.25126700000E+02 0.  1.
     -611    1    3    3    0    0  0.30382978078E-02 -0.33088278681E-01  0.92650961331E+01  0.92651611115E+01  0.10000000000E-01 0.  1.
      611    1    3    3    0    0 -0.64629150235E-02  0.37262148545E-01  0.27309528193E+01  0.27312329704E+01  0.10000000000E-01 0. -1.
</event>
<event>
 7   0  0.6206631E-02  0.9118800E+02  0.7818608E-02  0.1180000E+00
       11   -1    0    0    0    0  0.00000000000E+00  0.00000000000E+00  0.11999999989E+02  0.12000000000E+02  0.51109989000E-03 0. -1.
     -623   -1    0    0    0    0  0.00000000000E+00  0.00000000000E+00  0.42561509872E-11  0.25126700000E+02  0.25126700000E+02 0.  1.
      622    2    1    2    0    0  0.56873044539E-02 -0.16374867940E-01  0.11916622661E+02  0.11917200066E+02  0.11602277280E+00 0.  0.
       11    1    1    2    0    0  0.49604881613E-02  0.28856445304E-02  0.82593336454E-01  0.82794044695E-01  0.51109989000E-03 0. -1.
     -623    1    1    2    0    0 -0.10647792615E-01  0.13489223410E-01  0.78399137876E-03  0.25126705889E+02  0.25126700000E+02 0.  1.
     -611    1    3    3    0    0  0.53362067188E-03  0.37955139776E-01  0.87730839599E+01  0.87731717779E+01  0.10000000000E-01 0. -1.
      611    1    3    3    0    0  0.51536837820E-02 -0.54330007716E-01  0.31435387014E+01  0.31440282883E+01  0.10000000000E-01 0.  1.
</event>
<event>
 7   0  0.6206631E-02  0.9118800E+02  0.7818608E-02  0.1180000E+00
       11   -1    0    0    0    0  0.00000000000E+00  0.00000000000E+00  0.11999999989E+02  0.12000000000E+02  0.51109989000E-03 0. -1.
     -623   -1    0    0    0    0  0.00000000000E+00  0.00000000000E+00  0.42561509872E-11  0.25126700000E+02  0.25126700000E+02 0.  1.
      622    2    1    2    0    0 -0.36432947418E-02 -0.99703810798E-03  0.11996236838E+02  0.11996577220E+02  0.90290931875E-01 0.  0.
       11    1    1    2    0    0  0.20854157555E-02  0.25524038344E-02  0.76719851635E-03  0.34225050618E-02  0.51109989000E-03 0. -1.
     -623    1    1    2    0    0  0.15578789863E-02 -0.15553657264E-02  0.29959526268E-02  0.25126700275E+02  0.25126700000E+02 0.  1.
     -611    1    3    3    0    0  0.26306465643E-01 -0.34368946779E-01  0.58251446990E+01  0.58253140705E+01  0.10000000000E-01 0. -1.
      611    1    3    3    0    0 -0.29949760384E-01  0.33371908671E-01  0.61710921390E+01  0.61712631495E+01  0.10000000000E-01 0.  1.
</event>
<event>
 7   0  0.6206631E-02  0.9118800E+02  0.7818608E-02  0.1180000E+00
       11   -1    0    0    0    0  0.00000000000E+00  0.00000000000E+00  0.11999999989E+02  0.12000000000E+02  0.51109989000E-03 0. -1.
     -623   -1    0    0    0    0  0.00000000000E+00  0.00000000000E+00  0.42561509872E-11  0.25126700000E+02  0.25126700000E+02 0. -1.
      622    2    1    2    0    0  0.16111866841E-01 -0.60653026879E-02  0.10765085365E+02  0.10765491038E+02  0.91858533576E-01 0.  0.
       11    1    1    2    0    0 -0.19484598629E-02  0.35887199632E-01  0.12339638704E+01  0.12344872548E+01  0.51109989000E-03 0. -1.
     -623    1    1    2    0    0 -0.14163406978E-01 -0.29821896944E-01  0.95075338515E-03  0.25126721707E+02  0.25126700000E+02 0. -1.
     -611    1    3    3    0    0  0.14982420416E-01 -0.34992852489E-01  0.93108245541E+01  0.93109077350E+01  0.10000000000E-01 0.  1.
      611    1    3    3    0    0  0.11294464245E-02  0.28927549802E-01  0.14542608112E+01  0.14545833032E+01  0.10000000000E-01 0. -1.
</event>
<event>
 7   0  0.6206631E-02  0.9118800E+02  0.7818608E-02  0.1180000E+00
       11   -1    0    0    0    0  0.00000000000E+00  0.00000000000E+00  0.11999999989E+02  0.12000000000E+02  0.51109989000E-03 0. -1.
     -623   -1    0    0    0    0  0.00000000000E+00  0.00000000000E+00  0.42561509872E-11  0.25126700000E+02  0.25126700000E+02 0.  1.
      622    2    1    2    0    0  0.20192697060E-01 -0.16691302796E-01  0.11896211595E+02  0.11896854906E+02  0.12091322595E+00 0.  0.
       11    1    1    2    0    0 -0.30476144735E-02 -0.66387098280E-01  0.78676620562E-01  0.10298935197E+00  0.51109989000E-03 0. -1.
     -623    1    1    2    0    0 -0.17145082587E-01  0.83078401076E-01  0.25111773734E-01  0.25126855742E+02  0.25126700000E+02 0.  1.
     -611    1    3    3    0    0 -0.18043318263E-02 -0.56010644530E-01  0.96569962287E+01  0.96571640045E+01  0.10000000000E-01 0. -1.
      611    1    3    3    0    0  0.21997028886E-01  0.39319341735E-01  0.22392153661E+01  0.22396909018E+01  0.10000000000E-01 0.  1.
</event>
<event>
 7   0  0.6206631E-02  0.9118800E+02  0.7818608E-02  0.1180000E+00
       11   -1    0    0    0    0  0.00000000000E+00  0.00000000000E+00  0.11999999989E+02  0.12000000000E+02  0.51109989000E-03 0.  1.
     -623   -1    0    0    0    0  0.00000000000E+00  0.00000000000E+00  0.42561509872E-11  0.25126700000E+02  0.25126700000E+02 0.  1.
      622    2    1    2    0    0 -0.17116124224E-01  0.29805693257E-01  0.10783913508E+02  0.10784416991E+02  0.98376542682E-01 0.  0.
       11    1    1    2    0    0  0.32815057134E-01 -0.32897582698E-01  0.12146893564E+01  0.12155778760E+01  0.51109989000E-03 0.  1.
     -623    1    1    2    0    0 -0.15698932910E-01  0.30918894406E-02  0.13971249820E-02  0.25126705133E+02  0.25126700000E+02 0.  1.
     -611    1    3    3    0    0 -0.21136517902E-01 -0.17198848917E-01  0.82126474967E+01  0.82126987925E+01  0.10000000000E-01 0. -1.
      611    1    3    3    0    0  0.40203936774E-02  0.47004542174E-01  0.25712660111E+01  0.25717181981E+01  0.10000000000E-01 0.  1.
</event>
<event>
 7   0  0.6206631E-02  0.9118800E+02  0.7818608E-02  0.1180000E+00
       11   -1    0    0    0    0  0.00000000000E+00  0.00000000000E+00  0.11999999989E+02  0.12000000000E+02  0.51109989000E-03 0. -1.
     -623   -1    0    0    0    0  0.00000000000E+00  0.00000000000E+00  0.42561509872E-11  0.25126700000E+02  0.25126700000E+02 0.  1.
      622    2    1    2    0    0  0.39731926763E-02  0.76435814802E-02  0.11469229289E+02  0.11469558382E+02  0.86456799288E-01 0.  0.
       11    1    1    2    0    0 -0.29853511812E-02 -0.36508604559E-02  0.53042006764E+00  0.53044127901E+00  0.51109989000E-03 0. -1.
     -623    1    1    2    0    0 -0.98784149512E-03 -0.39927210244E-02  0.35063233850E-03  0.25126700339E+02  0.25126700000E+02 0.  1.
     -611    1    3    3    0    0  0.99251635172E-02 -0.25938454540E-01  0.16450728853E+01  0.16453376888E+01  0.10000000000E-01 0. -1.
      611    1    3    3    0    0 -0.59519708409E-02  0.33582036020E-01  0.98241564039E+01  0.98242206931E+01  0.10000000000E-01 0. -1.
</event>
<event>
 7   0  0.6206631E-02  0.9118800E+02  0.7818608E-02  0.1180000E+00
       11   -1    0    0    0    0  0.00000000000E+00  0.00000000000E+00  0.11999999989E+02  0.12000000000E+02  0.51109989000E-03 0.  1.
     -623   -1    0    0    0    0  0.00000000000E+00  0.00000000000E+00  0.42561509872E-11  0.25126700000E+02  0.25126700000E+02 0.  1.
      622    2    1    2    0    0 -0.24182596136E-01  0.27243854183E-01  0.78970363044E+01  0.78987539464E+01  0.16063774758E+00 0.  0.
       11    1    1    2    0    0  0.23532701488E-01 -0.37687791734E-01  0.41010030814E+01  0.41012437982E+01  0.51109989000E-03 0.  1.
     -623    1    1    2    0    0  0.64989464842E-03  0.10443937551E-01  0.19606032875E-02  0.25126702255E+02  0.25126700000E+02 0.  1.
     -611    1    3    3    0    0 -0.90887478972E-01 -0.13635710940E-02  0.44123537899E+01  0.44133012996E+01  0.10000000000E-01 0.  1.
      611    1    3    3    0    0  0.66704882836E-01  0.28607425277E-01  0.34846825145E+01  0.34854526468E+01  0.10000000000E-01 0. -1.
</event>
<event>
 7   0  0.6206631E-02  0.9118800E+02  0.7818608E-02  0.1180000E+00
       11   -1    0    0    0    0  0.00000000000E+00  0.00000000000E+00  0.11999999989E+02  0.12000000000E+02  0.51109989000E-03 0.  1.
     -623   -1    0    0    0    0  0.00000000000E+00  0.00000000000E+00  0.42561509872E-11  0.25126700000E+02  0.25126700000E+02 0. -1.
      622    2    1    2    0    0 -0.12421633023E+00 -0.99365950258E-02  0.65424938862E+01  0.65444074283E+01  0.97539244110E-01 0.  0.
       11    1    1    2    0    0  0.10216096163E+00  0.81708818115E-03  0.54546243720E+01  0.54555810718E+01  0.51109989000E-03 0.  1.
     -623    1    1    2    0    0  0.22055368597E-01  0.91195068447E-02  0.28817308882E-02  0.25126711500E+02  0.25126700000E+02 0. -1.
     -611    1    3    3    0    0 -0.57705659902E-01  0.30361610130E-01  0.43723101915E+01  0.43728078143E+01  0.10000000000E-01 0. -1.
      611    1    3    3    0    0 -0.66510670330E-01 -0.40298205156E-01  0.21701836947E+01  0.21715996140E+01  0.10000000000E-01 0.  1.
</event>
<event>
 7   0  0.6206631E-02  0.9118800E+02  0.7818608E-02  0.1180000E+00
       11   -1    0    0    0    0  0.00000000000E+00  0.00000000000E+00  0.11999999989E+02  0.12000000000E+02  0.51109989000E-03 0.  1.
     -623   -1    0    0    0    0  0.00000000000E+00  0.00000000000E+00  0.42561509872E-11  0.25126700000E+02  0.25126700000E+02 0.  1.
      622    2    1    2    0    0  0.10836480123E-01  0.23610919840E-01  0.30661579280E+01  0.30667387628E+01  0.53733559729E-01 0.  0.
       11    1    1    2    0    0 -0.10508745960E-01 -0.24626353202E-01  0.89332210673E+01  0.89332612068E+01  0.51109989000E-03 0.  1.
     -623    1    1    2    0    0 -0.32773416313E-03  0.10154333621E-02  0.62099385547E-03  0.25126700030E+02  0.25126700000E+02 0.  1.
     -611    1    3    3    0    0 -0.17460301843E-01  0.19653634207E-02  0.70126200366E+00  0.70155336402E+00  0.10000000000E-01 0.  1.
      611    1    3    3    0    0  0.28296781966E-01  0.21645556419E-01  0.23648959243E+01  0.23651853988E+01  0.10000000000E-01 0. -1.
</event>
<event>
 7   0  0.6206631E-02  0.9118800E+02  0.7818608E-02  0.1180000E+00
       11   -1    0    0    0    0  0.00000000000E+00  0.00000000000E+00  0.11999999989E+02  0.12000000000E+02  0.51109989000E-03 0. -1.
     -623   -1    0    0    0    0  0.00000000000E+00  0.00000000000E+00  0.42561509872E-11  0.25126700000E+02  0.25126700000E+02 0.  1.
      622    2    1    2    0    0 -0.70419408101E-03  0.22121396109E-02  0.11984222526E+02  0.11984691492E+02  0.10599630306E+00 0.  0.
       11    1    1    2    0    0  0.68578268450E-03  0.55400603122E-03  0.15274395535E-01  0.15308350749E-01  0.51109989000E-03 0. -1.
     -623    1    1    2    0    0  0.18411396503E-04 -0.27661456422E-02  0.50306763525E-03  0.25126700157E+02  0.25126700000E+02 0.  1.
     -611    1    3    3    0    0  0.34785955747E-01 -0.36764327775E-01  0.66002398276E+01  0.66004414595E+01  0.10000000000E-01 0.  1.
      611    1    3    3    0    0 -0.35490149828E-01  0.38976467386E-01  0.53839826983E+01  0.53842500324E+01  0.10000000000E-01 0. -1.
</event>
<event>
 7   0  0.6206631E-02  0.9118800E+02  0.7818608E-02  0.1180000E+00
       11   -1    0    0    0    0  0.00000000000E+00  0.00000000000E+00  0.11999999989E+02  0.12000000000E+02  0.51109989000E-03 0. -1.
     -623   -1    0    0    0    0  0.00000000000E+00  0.00000000000E+00  0.42561509872E-11  0.25126700000E+02  0.25126700000E+02 0.  1.
      622    2    1    2    0    0  0.15390410469E-02  0.10535105637E-02  0.11917832216E+02  0.11918183535E+02  0.91490775520E-01 0.  0.
       11    1    1    2    0    0 -0.15165412320E-02  0.12211630341E-02  0.81791590236E-01  0.81816358956E-01  0.51109989000E-03 0. -1.
     -623    1    1    2    0    0 -0.22499814958E-04 -0.22746735978E-02  0.37618243152E-03  0.25126700106E+02  0.25126700000E+02 0.  1.
     -611    1    3    3    0    0  0.18969620168E-01 -0.21679335497E-01  0.10417101832E+02  0.10417146463E+02  0.10000000000E-01 0. -1.
      611    1    3    3    0    0 -0.17430579121E-01  0.22732846061E-01  0.15007303840E+01  0.15010370725E+01  0.10000000000E-01 0.  1.
</event>
<event>
 7   0  0.6206631E-02  0.9118800E+02  0.7818608E-02  0.1180000E+00
       11   -1    0    0    0    0  0.00000000000E+00  0.00000000000E+00  0.11999999989E+02  0.12000000000E+02  0.51109989000E-03 0.  1.
     -623   -1    0    0    0    0  0.00000000000E+00  0.00000000000E+00  0.42561509872E-11  0.25126700000E+02  0.25126700000E+02 0.  1.
      622    2    1    2    0    0 -0.24901939539E-02 -0.22955960704E-02  0.11929050058E+02  0.11929515097E+02  0.10527914196E+00 0.  0.
       11    1    1    2    0    0  0.43539116878E-02  0.20191978756E-02  0.70319382290E-01  0.70484824294E-01  0.51109989000E-03 0.  1.
     -623    1    1    2    0    0 -0.18637177338E-02  0.27639819478E-03  0.63054889610E-03  0.25126700079E+02  0.25126700000E+02 0.  1.
     -611    1    3    3    0    0 -0.26312693504E-01  0.35923807404E-01  0.88679050211E+01  0.88680224595E+01  0.10000000000E-01 0.  1.
      611    1    3    3    0    0  0.23822499550E-01 -0.38219403475E-01  0.30611450368E+01  0.30614926377E+01  0.10000000000E-01 0.  1.
</event>
<event>
 7   0  0.6206631E-02  0.9118800E+02  0.7818608E-02  0.1180000E+00
       11   -1    0    0    0    0  0.00000000000E+00  0.00000000000E+00  0.11999999989E+02  0.12000000000E+02  0.51109989000E-03 0. -1.
     -623   -1    0    0    0    0  0.00000000000E+00  0.00000000000E+00  0.42561509872E-11  0.25126700000E+02  0.25126700000E+02 0.  1.
      622    2    1    2    0    0 -0.30526617868E-02  0.45416061669E-02  0.11888999407E+02  0.11889478965E+02  0.10664532065E+00 0.  0.
       11    1    1    2    0    0  0.49598543840E-02 -0.44682258181E-02  0.11031797064E+00  0.11052095306E+00  0.51109989000E-03 0. -1.
     -623    1    1    2    0    0 -0.19071925971E-02 -0.73380348781E-04  0.68261171930E-03  0.25126700082E+02  0.25126700000E+02 0.  1.
     -611    1    3    3    0    0 -0.95300020219E-03 -0.63607513793E-02  0.11653467090E+02  0.11653473155E+02  0.10000000000E-01 0. -1.
      611    1    3    3    0    0 -0.20996615846E-02  0.10902357546E-01  0.23553231684E+00  0.23600580979E+00  0.10000000000E-01 0. -1.
</event>
<event>
 7   0  0.6206631E-02  0.9118800E+02  0.7818608E-02  0.1180000E+00
       11   -1    0    0    0    0  0.00000000000E+00  0.00000000000E+00  0.11999999989E+02  0.12000000000E+02  0.51109989000E-03 0. -1.
     -623   -1    0    0    0    0  0.00000000000E+00  0.00000000000E+00  0.42561509872E-11  0.25126700000E+02  0.25126700000E+02 0.  1.
      622    2    1    2    0    0 -0.22958451490E-02 -0.30894326332E-02  0.11949009730E+02  0.11949476559E+02  0.10555426998E+00 0.  0.
       11    1    1    2    0    0  0.18151293245E-02 -0.17984475182E-02  0.50455709735E-01  0.50522954941E-01  0.51109989000E-03 0. -1.
     -623    1    1    2    0    0  0.48071582447E-03  0.48878801514E-02  0.53454957034E-03  0.25126700486E+02  0.25126700000E+02 0.  1.
     -611    1    3    3    0    0  0.29215035454E-03 -0.52739663588E-01  0.70495010509E+01  0.70497054282E+01  0.10000000000E-01 0. -1.
      611    1    3    3    0    0 -0.25879955035E-02  0.49650230955E-01  0.48995086789E+01  0.48997711312E+01  0.10000000000E-01 0.  1.
</event>
<event>
 7   0  0.6206631E-02  0.9118800E+02  0.7818608E-02  0.1180000E+00
       11   -1    0    0    0    0  0.00000000000E+00  0.00000000000E+00  0.11999999989E+02  0.12000000000E+02  0.51109989000E-03 0. -1.
     -623   -1    0    0    0    0  0.00000000000E+00  0.00000000000E+00  0.42561509872E-11  0.25126700000E+02  0.25126700000E+02 0. -1.
      622    2    1    2    0    0 -0.97942056277E-03  0.12386338994E-02  0.11991055116E+02  0.11991530997E+02  0.10681936198E+00 0.  0.
       11    1    1    2    0    0  0.15901403664E-02 -0.84238135793E-03  0.82598000573E-02  0.84689829866E-02  0.51109989000E-03 0. -1.
     -623    1    1    2    0    0 -0.61071980368E-03 -0.39625254151E-03  0.68507345647E-03  0.25126700020E+02  0.25126700000E+02 0. -1.
     -611    1    3    3    0    0 -0.40491834765E-01  0.92224541740E-02  0.23613978663E+01  0.23617841826E+01  0.10000000000E-01 0.  1.
      611    1    3    3    0    0  0.39512414202E-01 -0.79838202746E-02  0.96296572494E+01  0.96297468146E+01  0.10000000000E-01 0. -1.
</event>
<event>
 7   0  0.6206631E-02  0.9118800E+02  0.7818608E-02  0.1180000E+00
       11   -1    0    0    0    0  0.00000000000E+00  0.00000000000E+00  0.11999999989E+02  0.12000000000E+02  0.51109989000E-03 0.  1.
     -623   -1    0    0    0    0  0.00000000000E+00  0.00000000000E+00  0.42561509872E-11  0.25126700000E+02  0.25126700000E+02 0.  1.
      622    2    1    2    0    0  0.55726504404E-02 -0.42638501534E-02  0.11657008647E+02  0.11657166893E+02  0.60333622071E-01 0.  0.
       11    1    1    2    0    0 -0.72346802238E-02  0.82411167822E-03  0.34275509945E+00  0.34283281521E+00  0.51109989000E-03 0.  1.
     -623    1    1    2    0    0  0.16620297834E-02  0.34397384752E-02  0.23624264267E-03  0.25126700292E+02  0.25126700000E+02 0.  1.
     -611    1    3    3    0    0  0.16551753632E-01 -0.10371369745E-01  0.10707455449E+02  0.10707477935E+02  0.10000000000E-01 0.  1.
      611    1    3    3    0    0 -0.10979103192E-01  0.61075195913E-02  0.94955319766E+00  0.94968895839E+00  0.10000000000E-01 0. -1.
</event>
<event>
 7   0  0.6206631E-02  0.9118800E+02  0.7818608E-02  0.1180000E+00
       11   -1    0    0    0    0  0.00000000000E+00  0.00000000000E+00  0.11999999989E+02  0.12000000000E+02  0.51109989000E-03 0. -1.
     -623   -1    0    0    0    0  0.00000000000E+00  0.00000000000E+00  0.42561509872E-11  0.25126700000E+02  0.25126700000E+02 0. -1.
      622    2    1    2    0    0 -0.21009078023E-03 -0.36746768217E-02  0.11902817749E+02  0.11903197449E+02  0.95003121023E-01 0.  0.
       11    1    1    2    0    0  0.56692669865E-02  0.20336530108E-04  0.96634177313E-01  0.96801686193E-01  0.51109989000E-03 0. -1.
     -623    1    1    2    0    0 -0.54591762062E-02  0.36543402916E-02  0.54806261068E-03  0.25126700865E+02  0.25126700000E+02 0. -1.
     -611    1    3    3    0    0  0.15288609176E-01 -0.35623998441E-01  0.26151192682E+01  0.26154257011E+01  0.10000000000E-01 0.  1.
      611    1    3    3    0    0 -0.15498699956E-01  0.31949321619E-01  0.92876984810E+01  0.92877717480E+01  0.10000000000E-01 0. -1.
</event>
<event>
 7   0  0.6206631E-02  0.9118800E+02  0.7818608E-02  0.1180000E+00
       11   -1    0    0    0    0  0.00000000000E+00  0.00000000000E+00  0.11999999989E+02  0.12000000000E+02  0.51109989000E-03 0.  1.
     -623   -1    0    0    0    0  0.00000000000E+00  0.00000000000E+00  0.42561509872E-11  0.25126700000E+02  0.25126700000E+02 0.  1.
      622    2    1    2    0    0 -0.11233317020E-01  0.24547285037E-02  0.11680674306E+02  0.11681007557E+02  0.87481942583E-01 0.  0.
       11    1    1    2    0    0  0.11744118403E-01  0.99492858821E-02  0.31861739091E+00  0.31898936600E+00  0.51109989000E-03 0.  1.
     -623    1    1    2    0    0 -0.51080138308E-03 -0.12404014386E-01  0.70829203828E-03  0.25126703077E+02  0.25126700000E+02 0.  1.
     -611    1    3    3    0    0  0.11430062105E-01  0.24227804244E-01  0.14596989431E+01  0.14599789853E+01  0.10000000000E-01 0. -1.
      611    1    3    3    0    0 -0.22663379125E-01 -0.21773075741E-01  0.10220975363E+02  0.10221028572E+02  0.10000000000E-01 0.  1.
</event>
<event>
 7   0  0.6206631E-02  0.9118800E+02  0.7818608E-02  0.1180000E+00
       11   -1    0    0    0    0  0.00000000000E+00  0.00000000000E+00  0.11999999989E+02  0.12000000000E+02  0.51109989000E-03 0.  1.
     -623   -1    0    0    0    0  0.00000000000E+00  0.00000000000E+00  0.42561509872E-11  0.25126700000E+02  0.25126700000E+02 0. -1.
      622    2    1    2    0    0 -0.72615533412E-02 -0.26441408708E-02  0.57546280324E+01  0.57553175966E+01  0.88753162592E-01 0.  0.
       11    1    1    2    0    0  0.59323086873E-02  0.42942704824E-02  0.62446779893E+01  0.62446823045E+01  0.51109989000E-03 0.  1.
     -623    1    1    2    0    0  0.13292446538E-02 -0.16501296116E-02  0.69396737945E-03  0.25126700099E+02  0.25126700000E+02 0. -1.
     -611    1    3    3    0    0 -0.11190216911E-01  0.33156935930E-01  0.44641215022E+01  0.44642698607E+01  0.10000000000E-01 0.  1.
      611    1    3    3    0    0  0.39286635694E-02 -0.35801076801E-01  0.12905065303E+01  0.12910477358E+01  0.10000000000E-01 0.  1.
</event>
<event>
 7   0  0.6206631E-02  0.9118800E+02  0.7818608E-02  0.1180000E+00
       11   -1    0    0    0    0  0.00000000000E+00  0.00000000000E+00  0.11999999989E+02  0.12000000000E+02  0.51109989000E-03 0.  1.
     -623   -1    0    0    0    0  0.00000000000E+00  0.00000000000E+00  0.42561509872E-11  0.25126700000E+02  0.25126700000E+02 0. -1.
      622    2    1    2    0    0  0.26807197591E-02  0.44741282856E-02  0.11828525009E+02  0.11828718879E+02  0.67522120097E-01 0.  0.
       11    1    1    2    0    0 -0.20911655956E-02 -0.40966465111E-02  0.17121857902E+00  0.17128110962E+00  0.51109989000E-03 0.  1.
     -623    1    1    2    0    0 -0.58955416346E-03 -0.37748177454E-03  0.25640123629E-03  0.25126700011E+02  0.25126700000E+02 0. -1.
     -611    1    3    3    0    0  0.35925815589E-03 -0.40180900937E-02  0.11358407378E+02  0.11358412496E+02  0.10000000000E-01 0.  1.
      611    1    3    3    0    0  0.23214616032E-02  0.84922183794E-02  0.47011763124E+00  0.47030638328E+00  0.10000000000E-01 0.  1.
</event>
<event>
 7   0  0.6206631E-02  0.9118800E+02  0.7818608E-02  0.1180000E+00
       11   -1    0    0    0    0  0.00000000000E+00  0.00000000000E+00  0.11999999989E+02  0.12000000000E+02  0.51109989000E-03 0.  1.
     -623   -1    0    0    0    0  0.00000000000E+00  0.00000000000E+00  0.42561509872E-11  0.25126700000E+02  0.25126700000E+02 0.  1.
      622    2    1    2    0    0  0.76518977509E-01  0.13857577058E-01  0.96639751523E+01  0.96646426522E+01  0.82792900129E-01 0.  0.
       11    1    1    2    0    0 -0.52917068862E-01 -0.11343287847E-01  0.23347188855E+01  0.23353461032E+01  0.51109989000E-03 0.  1.
     -623    1    1    2    0    0 -0.23601908647E-01 -0.25142892107E-02  0.13059513204E-02  0.25126711245E+02  0.25126700000E+02 0.  1.
     -611    1    3    3    0    0  0.88907612655E-02  0.36527685182E-01  0.24613558904E+01  0.24616632866E+01  0.10000000000E-01 0.  1.
      611    1    3    3    0    0  0.67628216243E-01 -0.22670108124E-01  0.72026192618E+01  0.72029793655E+01  0.10000000000E-01 0. -1.
</event>
<event>
 7   0  0.6206631E-02  0.9118800E+02  0.7818608E-02  0.1180000E+00
       11   -1    0    0    0    0  0.00000000000E+00  0.00000000000E+00  0.11999999989E+02  0.12000000000E+02  0.51109989000E-03 0.  1.
     -623   -1    0    0    0    0  0.00000000000E+00  0.00000000000E+00  0.42561509872E-11  0.25126700000E+02  0.25126700000E+02 0. -1.
      622    2    1    2    0    0  0.11492035427E-02 -0.47269313763E-02  0.11970435176E+02  0.11970902718E+02  0.10568788835E+00 0.  0.
       11    1    1    2    0    0  0.20002654260E-02  0.47479837806E-02  0.28632737960E-01  0.29097067171E-01  0.51109989000E-03 0.  1.
     -623    1    1    2    0    0 -0.31494689687E-02 -0.21052404308E-04  0.93207556586E-03  0.25126700215E+02  0.25126700000E+02 0. -1.
     -611    1    3    3    0    0  0.30835694932E-01 -0.15456823450E-02  0.10786795522E+02  0.10786844343E+02  0.10000000000E-01 0.  1.
      611    1    3    3    0    0 -0.29686491390E-01 -0.31812490314E-02  0.11836396532E+01  0.11840583755E+01  0.10000000000E-01 0. -1.
</event>
<event>
 7   0  0.6206631E-02  0.9118800E+02  0.7818608E-02  0.1180000E+00
       11   -1    0    0    0    0  0.00000000000E+00  0.00000000000E+00  0.11999999989E+02  0.12000000000E+02  0.51109989000E-03 0.  1.
     -623   -1    0    0    0    0  0.00000000000E+00  0.00000000000E+00  0.42561509872E-11  0.25126700000E+02  0.25126700000E+02 0. -1.
      622    2    1    2    0    0  0.61655226352E-01  0.35203457768E-02  0.72090099742E+01  0.72097689297E+01  0.84436078908E-01 0.  0.
       11    1    1    2    0    0 -0.41629785159E-01 -0.78546278758E-02  0.47900353344E+01  0.47902226984E+01  0.51109989000E-03 0.  1.
     -623    1    1    2    0    0 -0.20025441193E-01  0.43342820990E-02  0.95468047372E-03  0.25126708372E+02  0.25126700000E+02 0. -1.
     -611    1    3    3    0    0  0.26280972532E-01 -0.33646432589E-01  0.19201560664E+01  0.19206566823E+01  0.10000000000E-01 0. -1.
      611    1    3    3    0    0  0.35374253819E-01  0.37166778366E-01  0.52888539078E+01  0.52891122473E+01  0.10000000000E-01 0.  1.
</event>
<event>
 7   0  0.6206631E-02  0.9118800E+02  0.7818608E-02  0.1180000E+00
       11   -1    0    0    0    0  0.00000000000E+00  0.00000000000E+00  0.11999999989E+02  0.12000000000E+02  0.51109989000E-03 0. -1.
     -623   -1    0    0    0    0  0.00000000000E+00  0.00000000000E+00  0.42561509872E-11  0.25126700000E+02  0.25126700000E+02 0.  1.
      622    2    1    2    0    0 -0.11823769502E-01 -0.86932648958E-02  0.10963654066E+02  0.10964245015E+02  0.11288450135E+00 0.  0.
       11    1    1    2    0    0  0.12409382962E-01  0.88401575959E-02  0.10356427715E+01  0.10357549674E+01  0.51109989000E-03 0. -1.
     -623    1    1    2    0    0 -0.58561345997E-03 -0.14689270006E-03  0.70315182550E-03  0.25126700017E+02  0.25126700000E+02 0.  1.
     -611    1    3    3    0    0 -0.19808208902E-01 -0.13858475437E-02  0.10772788030E+02  0.10772810971E+02  0.10000000000E-01 0. -1.
      611    1    3    3    0    0  0.79844393999E-02 -0.73074173521E-02  0.19086603574E+00  0.19143404404E+00  0.10000000000E-01 0.  1.
</event>
<event>
 7   0  0.6206631E-02  0.9118800E+02  0.7818608E-02  0.1180000E+00
       11   -1    0    0    0    0  0.00000000000E+00  0.00000000000E+00  0.11999999989E+02  0.12000000000E+02  0.51109989000E-03 0. -1.
     -623   -1    0    0    0    0  0.00000000000E+00  0.00000000000E+00  0.42561509872E-11  0.25126700000E+02  0.25126700000E+02 0. -1.
      622    2    1    2    0    0  0.58393878991E-01  0.73910191658E-01  0.31769732174E+01  0.31804028272E+01  0.11371348996E+00 0.  0.
       11    1    1    2    0    0 -0.57523588795E-01 -0.83397692222E-01  0.88190131180E+01  0.88195950460E+01  0.51109989000E-03 0. -1.
     -623    1    1    2    0    0 -0.87029019634E-03  0.94875005642E-02  0.40136537311E-02  0.25126702127E+02  0.25126700000E+02 0. -1.
     -611    1    3    3    0    0  0.68009083218E-01  0.76670026979E-01  0.15728244441E+01  0.15761916953E+01  0.10000000000E-01 0.  1.
      611    1    3    3    0    0 -0.96152042267E-02 -0.27598353213E-02  0.16041487733E+01  0.16042111319E+01  0.10000000000E-01 0. -1.
</event>
<event>
 7   0  0.6206631E-02  0.9118800E+02  0.7818608E-02  0.1180000E+00
       11   -1    0    0    0    0  0.00000000000E+00  0.00000000000E+00  0.11999999989E+02  0.12000000000E+02  0.51109989000E-03 0.  1.
     -623   -1    0    0    0    0  0.00000000000E+00  0.00000000000E+00  0.42561509872E-11  0.25126700000E+02  0.25126700000E+02 0.  1.
      622    2    1    2    0    0  0.14062236367E+00 -0.85676223797E-02  0.65996124705E+01  0.66013684521E+01  0.57728901128E-01 0.  0.
       11    1    1    2    0    0 -0.12227043528E+00 -0.35313145610E-01  0.53970859581E+01  0.53985863129E+01  0.51109989000E-03 0.  1.
     -623    1    1    2    0    0 -0.18351928389E-01  0.43880767990E-01  0.33015605258E-02  0.25126745235E+02  0.25126700000E+02 0.  1.
     -611    1    3    3    0    0 -0.87237662937E-03 -0.13829608098E-02  0.38625845807E+00  0.38639134314E+00  0.10000000000E-01 0. -1.
      611    1    3    3    0    0  0.14149474030E+00 -0.71846615699E-02  0.62133540125E+01  0.62149771090E+01  0.10000000000E-01 0.  1.
</event>
<event>
 7   0  0.6206631E-02  0.9118800E+02  0.7818608E-02  0.1180000E+00
       11   -1    0    0    0    0  0.00000000000E+00  0.00000000000E+00  0.11999999989E+02  0.12000000000E+02  0.51109989000E-03 0.  1.
     -623   -1    0    0    0    0  0.00000000000E+00  0.00000000000E+00  0.42561509872E-11  0.25126700000E+02  0.25126700000E+02 0.  1.
      622    2    1    2    0    0  0.73412532630E-02  0.29995680629E-02  0.11896507547E+02  0.11896966367E+02  0.10418258815E+00 0.  0.
       11    1    1    2    0    0 -0.74933450985E-02  0.12695457320E-02  0.10275129851E+00  0.10303325937E+00  0.51109989000E-03 0.  1.
     -623    1    1    2    0    0  0.15209183551E-03 -0.42691137949E-02  0.74114325363E-03  0.25126700374E+02  0.25126700000E+02 0.  1.
     -611    1    3    3    0    0 -0.29321808914E-01  0.16451419026E-01  0.16198446381E+01  0.16202243885E+01  0.10000000000E-01 0. -1.
      611    1    3    3    0    0  0.36663062177E-01 -0.13451850964E-01  0.10276662909E+02  0.10276741978E+02  0.10000000000E-01 0.  1.
</event>
<event>
 7   0  0.6206631E-02  0.9118800E+02  0.7818608E-02  0.1180000E+00
       11   -1    0    0    0    0  0.00000000000E+00  0.00000000000E+00  0.11999999989E+02  0.12000000000E+02  0.51109989000E-03 0.  1.
     -623   -1    0    0    0    0  0.00000000000E+00  0.00000000000E+00  0.42561509872E-11  0.25126700000E+02  0.25126700000E+02 0.  1.
      622    2    1    2    0    0 -0.25138953974E-02  0.20755641849E-02  0.11915986246E+02  0.11916636101E+02  0.12440712867E+00 0.  0.
       11    1    1    2    0    0  0.44711352032E-02  0.68927828354E-03  0.83239246610E-01  0.83363658473E-01  0.51109989000E-03 0.  1.
     -623    1    1    2    0    0 -0.19572398059E-02 -0.27648424684E-02  0.77449678891E-03  0.25126700240E+02  0.25126700000E+02 0.  1.
     -611    1    3    3    0    0 -0.40356789362E-01 -0.39468231707E-01  0.83139654839E+01  0.83141631256E+01  0.10000000000E-01 0.  1.
      611    1    3    3    0    0  0.37842893965E-01  0.41543795892E-01  0.36020207618E+01  0.36024729756E+01  0.10000000000E-01 0. -1.
</event>
<event>
 7   0  0.6206631E-02  0.9118800E+02  0.7818608E-02  0.1180000E+00
       11   -1    0    0    0    0  0.00000000000E+00  0.00000000000E+00  0.11999999989E+02  0.12000000000E+02  0.51109989000E-03 0.  1.
     -623   -1    0    0    0    0  0.00000000000E+00  0.00000000000E+00  0.42561509872E-11  0.25126700000E+02  0.25126700000E+02 0. -1.
      622    2    1    2    0    0 -0.21742614740E-01  0.23105151967E-01  0.11223506174E+02  0.11224113472E+02  0.11236457354E+00 0.  0.
       11    1    1    2    0    0  0.28886215095E-01  0.72243040261E-02  0.77529543701E+00  0.77586717927E+00  0.51109989000E-03 0.  1.
     -623    1    1    2    0    0 -0.71436003550E-02 -0.30329455993E-01  0.11983778231E-02  0.25126719349E+02  0.25126700000E+02 0. -1.
     -611    1    3    3    0    0  0.32118189804E-01 -0.25896535132E-01  0.47644435532E+01  0.47646326806E+01  0.10000000000E-01 0.  1.
      611    1    3    3    0    0 -0.53860804545E-01  0.49001687099E-01  0.64590626210E+01  0.64594807914E+01  0.10000000000E-01 0. -1.
</event>
<event>
 7   0  0.6206631E-02  0.9118800E+02  0.7818608E-02  0.1180000E+00
       11   -1    0    0    0    0  0.00000000000E+00  0.00000000000E+00  0.11999999989E+02  0.12000000000E+02  0.51109989000E-03 0.  1.
     -623   -1    0    0    0    0  0.00000000000E+00  0.00000000000E+00  0.42561509872E-11  0.25126700000E+02  0.25126700000E+02 0. -1.
      622    2    1    2    0    0 -0.14245666724E-02  0.87951162092E-02  0.11824262868E+02  0.11824504300E+02  0.75034585180E-01 0.  0.
       11    1    1    2    0    0 -0.94554260441E-02 -0.64024207009E-02  0.17512057020E+00  0.17549322324E+00  0.51109989000E-03 0.  1.
     -623    1    1    2    0    0  0.10879992717E-01 -0.23926955083E-02  0.61655133118E-03  0.25126702477E+02  0.25126700000E+02 0. -1.
     -611    1    3    3    0    0  0.23619331422E-01 -0.11976180187E-01  0.88728145535E+01  0.88728597083E+01  0.10000000000E-01 0.  1.
      611    1    3    3    0    0 -0.25043898094E-01  0.20771296396E-01  0.29514483141E+01  0.29516445914E+01  0.10000000000E-01 0. -1.
</event>
<event>
 7   0  0.6206631E-02  0.9118800E+02  0.7818608E-02  0.1180000E+00
       11   -1    0    0    0    0  0.00000000000E+00  0.00000000000E+00  0.11999999989E+02  0.12000000000E+02  0.51109989000E-03 0. -1.
     -623   -1    0    0    0    0  0.00000000000E+00  0.00000000000E+00  0.42561509872E-11  0.25126700000E+02  0.25126700000E+02 0.  1.
      622    2    1    2    0    0 -0.50778320371E-01 -0.43802164913E-01  0.42868429801E+01  0.42889737860E+01  0.11737262719E+00 0.  0.
       11    1    1    2    0    0  0.96968127620E-01  0.58669768751E-01  0.77101462176E+01  0.77109791802E+01  0.51109989000E-03 0. -1.
     -623    1    1    2    0    0 -0.46189807249E-01 -0.14867603838E-01  0.30107914026E-02  0.25126747034E+02  0.25126700000E+02 0.  1.
     -611    1    3    3    0    0 -0.66282240713E-01  0.17867086587E-01  0.19102956537E+01  0.19115548783E+01  0.10000000000E-01 0.  1.
      611    1    3    3    0    0  0.15503920342E-01 -0.61669251500E-01  0.23765473264E+01  0.23774189077E+01  0.10000000000E-01 0. -1.
</event>
<event>
 7   0  0.6206631E-02  0.9118800E+02  0.7818608E-02  0.1180000E+00
       11   -1    0    0    0    0  0.00000000000E+00  0.00000000000E+00  0.11999999989E+02  0.12000000000E+02  0.51109989000E-03 0.  1.
     -623   -1    0    0    0    0  0.00000000000E+00  0.00000000000E+00  0.42561509872E-11  0.25126700000E+02  0.25126700000E+02 0. -1.
      622    2    1    2    0    0 -0.38664221447E-02  0.27228053854E-02  0.11802345508E+02  0.11802855762E+02  0.10964613197E+00 0.  0.
       11    1    1    2    0    0  0.11589806411E-02 -0.21036039364E-02  0.19712878618E+00  0.19714407916E+00  0.51109989000E-03 0.  1.
     -623    1    1    2    0    0  0.27074415036E-02 -0.61920144895E-03  0.52569462321E-03  0.25126700159E+02  0.25126700000E+02 0. -1.
     -611    1    3    3    0    0  0.39969326220E-01  0.66885808549E-02  0.93608718628E+01  0.93609649244E+01  0.10000000000E-01 0.  1.
      611    1    3    3    0    0 -0.43835748364E-01 -0.39657754695E-02  0.24414736456E+01  0.24418908375E+01  0.10000000000E-01 0. -1.
</event>
<event>
 7   0  0.6206631E-02  0.9118800E+02  0.7818608E-02  0.1180000E+00
       11   -1    0    0    0    0  0.00000000000E+00  0.00000000000E+00  0.11999999989E+02  0.12000000000E+02  0.51109989000E-03 0.  1.
     -623   -1    0    0    0    0  0.00000000000E+00  0.00000000000E+00  0.42561509872E-11  0.25126700000E+02  0.25126700000E+02 0.  1.
      622    2    1    2    0    0  0.10687930816E-01 -0.50988441613E-01  0.95131418988E+01  0.95136248737E+01  0.80469858196E-01 0.  0.
       11    1    1    2    0    0 -0.17049481508E-01  0.49885178877E-01  0.24858152704E+01  0.24863742751E+01  0.51109989000E-03 0.  1.
     -623    1    1    2    0    0  0.63615506916E-02  0.11032627362E-02  0.10428198616E-02  0.25126700851E+02  0.25126700000E+02 0.  1.
     -611    1    3    3    0    0 -0.15385817869E-02 -0.61107362042E-01  0.88525672834E+01  0.88527839680E+01  0.10000000000E-01 0.  1.
      611    1    3    3    0    0  0.12226512603E-01  0.10118920429E-01  0.66057461539E+00  0.66084090571E+00  0.10000000000E-01 0.  1.
</event>
<event>
 7   0  0.6206631E-02  0.9118800E+02  0.7818608E-02  0.1180000E+00
       11   -1    0    0    0    0  0.00000000000E+00  0.00000000000E+00  0.11999999989E+02  0.12000000000E+02  0.51109989000E-03 0.  1.
     -623   -1    0    0    0    0  0.00000000000E+00  0.00000000000E+00  0.42561509872E-11  0.25126700000E+02  0.25126700000E+02 0.  1.
      622    2    1    2    0    0  0.36449849170E-01 -0.95292698736E-01  0.54864442046E+01  0.54882779007E+01  0.98564778782E-01 0.  0.
       11    1    1    2    0    0  0.13408968169E-02  0.86721729751E-01  0.65111144429E+01  0.65116921001E+01  0.51109989000E-03 0.  1.
     -623    1    1    2    0    0 -0.37790745987E-01  0.85709689847E-02  0.24413416231E-02  0.25126729999E+02  0.25126700000E+02 0.  1.
     -611    1    3    3    0    0 -0.92666596981E-02 -0.27563497071E-01  0.40458902686E+00  0.40575595869E+00  0.10000000000E-01 0.  1.
      611    1    3    3    0    0  0.45716508869E-01 -0.67729201665E-01  0.50818551777E+01  0.50825219420E+01  0.10000000000E-01 0.  1.
</event>
<event>
 7   0  0.6206631E-02  0.9118800E+02  0.7818608E-02  0.1180000E+00
       11   -1    0    0    0    0  0.00000000000E+00  0.00000000000E+00  0.11999999989E+02  0.12000000000E+02  0.51109989000E-03 0. -1.
     -623   -1    0    0    0    0  0.00000000000E+00  0.00000000000E+00  0.42561509872E-11  0.25126700000E+02  0.25126700000E+02 0. -1.
      622    2    1    2    0    0  0.25289623477E-01 -0.18229839943E-02  0.11644987037E+02  0.11645362391E+02  0.89995780599E-01 0.  0.
       11    1    1    2    0    0 -0.16164129922E-01 -0.70258568645E-02  0.35419576636E+00  0.35463438058E+00  0.51109989000E-03 0. -1.
     -623    1    1    2    0    0 -0.91254935551E-02  0.88488408588E-02  0.81718599870E-03  0.25126703229E+02  0.25126700000E+02 0. -1.
     -611    1    3    3    0    0  0.18592923308E-01  0.30312545884E-01  0.21785240073E+01  0.21788371664E+01  0.10000000000E-01 0.  1.
      611    1    3    3    0    0  0.66967001689E-02 -0.32135529878E-01  0.94664630295E+01  0.94665252245E+01  0.10000000000E-01 0. -1.
</event>
<event>
 7   0  0.6206631E-02  0.9118800E+02  0.7818608E-02  0.1180000E+00
       11   -1    0    0    0    0  0.00000000000E+00  0.00000000000E+00  0.11999999989E+02  0.12000000000E+02  0.51109989000E-03 0.  1.
     -623   -1    0    0    0    0  0.00000000000E+00  0.00000000000E+00  0.42561509872E-11  0.25126700000E+02  0.25126700000E+02 0.  1.
      622    2    1    2    0    0 -0.66566888302E-03  0.83226722196E-03  0.11995277135E+02  0.11995940548E+02  0.12615450185E+00 0.  0.
       11    1    1    2    0    0  0.29527534239E-03 -0.84868265761E-03  0.39256019851E-02  0.40594363962E-02  0.51109989000E-03 0.  1.
     -623    1    1    2    0    0  0.37039354063E-03  0.16415435642E-04  0.79725226568E-03  0.25126700015E+02  0.25126700000E+02 0.  1.
     -611    1    3    3    0    0 -0.16559244284E-01 -0.29925284286E-01  0.10506501339E+01  0.10512542200E+01  0.10000000000E-01 0. -1.
      611    1    3    3    0    0  0.15893575401E-01  0.30757551508E-01  0.10944627001E+02  0.10944686328E+02  0.10000000000E-01 0.  1.
</event>
<event>
 7   0  0.6206631E-02  0.9118800E+02  0.7818608E-02  0.1180000E+00
       11   -1    0    0    0    0  0.00000000000E+00  0.00000000000E+00  0.11999999989E+02  0.12000000000E+02  0.51109989000E-03 0. -1.
     -623   -1    0    0    0    0  0.00000000000E+00  0.00000000000E+00  0.42561509872E-11  0.25126700000E+02  0.25126700000E+02 0.  1.
      622    2    1    2    0    0 -0.28031301393E-01  0.11736760079E+00  0.10036022869E+02  0.10037500990E+02  0.12292353640E+00 0.  0.
       11    1    1    2    0    0  0.30689552917E-01 -0.12438645903E+00  0.19583108422E+01  0.19624972499E+01  0.51109989000E-03 0. -1.
     -623    1    1    2    0    0 -0.26582515235E-02  0.70188582379E-02  0.56662779286E-02  0.25126701760E+02  0.25126700000E+02 0.  1.
     -611    1    3    3    0    0  0.17345286081E-01  0.58497483626E-02  0.29814864218E+00  0.29887738512E+00  0.10000000000E-01 0.  1.
      611    1    3    3    0    0 -0.45376587474E-01  0.11151785243E+00  0.97378742268E+01  0.97386236052E+01  0.10000000000E-01 0. -1.
</event>
<event>
 7   0  0.6206631E-02  0.9118800E+02  0.7818608E-02  0.1180000E+00
       11   -1    0    0    0    0  0.00000000000E+00  0.00000000000E+00  0.11999999989E+02  0.12000000000E+02  0.51109989000E-03 0. -1.
     -623   -1    0    0    0    0  0.00000000000E+00  0.00000000000E+00  0.42561509872E-11  0.25126700000E+02  0.25126700000E+02 0.  1.
      622    2    1    2    0    0 -0.25461486920E-01 -0.58937828194E-01  0.11764678685E+02  0.11765221620E+02  0.93022856106E-01 0.  0.
       11    1    1    2    0    0  0.57544141509E-01  0.22801089891E-01  0.22642184487E+00  0.23473033673E+00  0.51109989000E-03 0. -1.
     -623    1    1    2    0    0 -0.32082654588E-01  0.36136738302E-01  0.88994596743E-02  0.25126748044E+02  0.25126700000E+02 0.  1.
     -611    1    3    3    0    0  0.21791652067E-01  0.88446800993E-02  0.16205382053E+01  0.16207397013E+01  0.10000000000E-01 0.  1.
      611    1    3    3    0    0 -0.47253138987E-01 -0.67782508293E-01  0.10144140479E+02  0.10144481918E+02  0.10000000000E-01 0. -1.
</event>
<event>
 7   0  0.6206631E-02  0.9118800E+02  0.7818608E-02  0.1180000E+00
       11   -1    0    0    0    0  0.00000000000E+00  0.00000000000E+00  0.11999999989E+02  0.12000000000E+02  0.51109989000E-03 0.  1.
     -623   -1    0    0    0    0  0.00000000000E+00  0.00000000000E+00  0.42561509872E-11  0.25126700000E+02  0.25126700000E+02 0.  1.
      622    2    1    2    0    0  0.10056308750E-02  0.32403579108E-02  0.11967703681E+02  0.11968088225E+02  0.95879396306E-01 0.  0.
       11    1    1    2    0    0  0.33183035672E-03 -0.29185070464E-02  0.31772151045E-01  0.31911731384E-01  0.51109989000E-03 0.  1.
     -623    1    1    2    0    0 -0.13374612318E-02 -0.32185086441E-03  0.52415677888E-03  0.25126700043E+02  0.25126700000E+02 0.  1.
     -611    1    3    3    0    0  0.30616431984E-01 -0.27365687143E-02  0.15550244279E+01  0.15553603525E+01  0.10000000000E-01 0.  1.
      611    1    3    3    0    0 -0.29610801109E-01  0.59769266250E-02  0.10412679253E+02  0.10412727873E+02  0.10000000000E-01 0. -1.
</event>
<event>
 7   0  0.6206631E-02  0.9118800E+02  0.7818608E-02  0.1180000E+00
       11   -1    0    0    0    0  0.00000000000E+00  0.00000000000E+00  0.11999999989E+02  0.12000000000E+02  0.51109989000E-03 0.  1.
     -623   -1    0    0    0    0  0.00000000000E+00  0.00000000000E+00  0.42561509872E-11  0.25126700000E+02  0.25126700000E+02 0.  1.
      622    2    1    2    0    0  0.14239352444E-01 -0.54396839290E-03  0.11805245841E+02  0.11805739723E+02  0.10704204779E+00 0.  0.
       11    1    1    2    0    0 -0.12251840388E-01 -0.46025264341E-02  0.19381759710E+00  0.19425965359E+00  0.51109989000E-03 0.  1.
     -623    1    1    2    0    0 -0.19875120560E-02  0.51464948270E-02  0.93655132738E-03  0.25126700623E+02  0.25126700000E+02 0.  1.
     -611    1    3    3    0    0  0.48808105765E-01  0.10068498544E-02  0.29517296462E+01  0.29521502586E+01  0.10000000000E-01 0. -1.
      611    1    3    3    0    0 -0.34568753321E-01 -0.15508182472E-02  0.88535161944E+01  0.88535894647E+01  0.10000000000E-01 0.  1.
</event>
<event>
 7   0  0.6206631E-02  0.9118800E+02  0.7818608E-02  0.1180000E+00
       11   -1    0    0    0    0  0.00000000000E+00  0.00000000000E+00  0.11999999989E+02  0.12000000000E+02  0.51109989000E-03 0. -1.
     -623   -1    0    0    0    0  0.00000000000E+00  0.00000000000E+00  0.42561509872E-11  0.25126700000E+02  0.25126700000E+02 0.  1.
      622    2    1    2    0    0 -0.22163684877E-01 -0.28028528476E-01  0.11520149844E+02  0.11520783321E+02  0.11540831647E+00 0.  0.
       11    1    1    2    0    0  0.58746881837E-01  0.70540945095E-01  0.47027588235E+00  0.47915225952E+00  0.51109989000E-03 0. -1.
     -623    1    1    2    0    0 -0.36583196960E-01 -0.42512416619E-01  0.95742630213E-02  0.25126764419E+02  0.25126700000E+02 0.  1.
     -611    1    3    3    0    0 -0.50715054316E-01  0.24986322455E-01  0.44579057550E+01  0.44582754573E+01  0.10000000000E-01 0.  1.
      611    1    3    3    0    0  0.28551369439E-01 -0.53014850931E-01  0.70622440888E+01  0.70625078637E+01  0.10000000000E-01 0. -1.
</event>
<event>
 7   0  0.6206631E-02  0.9118800E+02  0.7818608E-02  0.1180000E+00
       11   -1    0    0    0    0  0.00000000000E+00  0.00000000000E+00  0.11999999989E+02  0.12000000000E+02  0.51109989000E-03 0.  1.
     -623   -1    0    0    0    0  0.00000000000E+00  0.00000000000E+00  0.42561509872E-11  0.25126700000E+02  0.25126700000E+02 0.  1.
      622    2    1    2    0    0  0.76841264743E-02 -0.75765945919E-02  0.11919378114E+02  0.11919783150E+02  0.97669173128E-01 0.  0.
       11    1    1    2    0    0  0.16211417989E-02  0.16797408681E-02  0.80178825774E-01  0.80214431094E-01  0.51109989000E-03 0.  1.
     -623    1    1    2    0    0 -0.93052682731E-02  0.58968537237E-02  0.44304930154E-03  0.25126702419E+02  0.25126700000E+02 0.  1.
     -611    1    3    3    0    0  0.31620137446E-01 -0.17391657423E-01  0.10788421485E+02  0.10788486476E+02  0.10000000000E-01 0.  1.
      611    1    3    3    0    0 -0.23936010971E-01  0.98150628309E-02  0.11309566288E+01  0.11312966738E+01  0.10000000000E-01 0. -1.
</event>
<event>
 7   0  0.6206631E-02  0.9118800E+02  0.7818608E-02  0.1180000E+00
       11   -1    0    0    0    0  0.00000000000E+00  0.00000000000E+00  0.11999999989E+02  0.12000000000E+02  0.51109989000E-03 0. -1.
     -623   -1    0    0    0    0  0.00000000000E+00  0.00000000000E+00  0.42561509872E-11  0.25126700000E+02  0.25126700000E+02 0. -1.
      622    2    1    2    0    0  0.73893010519E-03 -0.35941083968E-02  0.11972458938E+02  0.11973096831E+02  0.12353646245E+00 0.  0.
       11    1    1    2    0    0  0.10228269734E-02  0.39709788940E-02  0.26583828837E-01  0.26903085830E-01  0.51109989000E-03 0. -1.
     -623    1    1    2    0    0 -0.17617570786E-02 -0.37687049726E-03  0.95722271909E-03  0.25126700083E+02  0.25126700000E+02 0. -1.
     -611    1    3    3    0    0  0.21777374964E-01 -0.26253704588E-01  0.10714681826E+01  0.10720576372E+01  0.10000000000E-01 0.  1.
      611    1    3    3    0    0 -0.21038444859E-01  0.22659596192E-01  0.10900990755E+02  0.10901039194E+02  0.10000000000E-01 0. -1.
</event>
<event>
 7   0  0.6206631E-02  0.9118800E+02  0.7818608E-02  0.1180000E+00
       11   -1    0    0    0    0  0.00000000000E+00  0.00000000000E+00  0.11999999989E+02  0.12000000000E+02  0.51109989000E-03 0.  1.
     -623   -1    0    0    0    0  0.00000000000E+00  0.00000000000E+00  0.42561509872E-11  0.25126700000E+02  0.25126700000E+02 0. -1.
      622    2    1    2    0    0  0.32843840146E-03  0.41859039766E-03  0.11980298616E+02  0.11980724481E+02  0.10101427607E+00 0.  0.
       11    1    1    2    0    0 -0.57825317367E-03  0.28221148662E-03  0.19257980549E-01  0.19275504092E-01  0.51109989000E-03 0.  1.
     -623    1    1    2    0    0  0.24981477221E-03 -0.70080188428E-03  0.44339283836E-03  0.25126700015E+02  0.25126700000E+02 0. -1.
     -611    1    3    3    0    0  0.22823588155E-01  0.12595212752E-01  0.11014623973E+02  0.11014659360E+02  0.10000000000E-01 0.  1.
      611    1    3    3    0    0 -0.22495149754E-01 -0.12176622354E-01  0.96567464322E+00  0.96606512123E+00  0.10000000000E-01 0.  1.
</event>
<event>
 7   0  0.6206631E-02  0.9118800E+02  0.7818608E-02  0.1180000E+00
       11   -1    0    0    0    0  0.00000000000E+00  0.00000000000E+00  0.11999999989E+02  0.12000000000E+02  0.51109989000E-03 0.  1.
     -623   -1    0    0    0    0  0.00000000000E+00  0.00000000000E+00  0.42561509872E-11  0.25126700000E+02  0.25126700000E+02 0. -1.
      622    2    1    2    0    0 -0.29662250061E-02 -0.31123291577E-01  0.11909772889E+02  0.11910237232E+02  0.10041521865E+00 0.  0.
       11    1    1    2    0    0  0.37579350037E-01  0.55260141058E-01  0.59846025846E-01  0.89708967064E-01  0.51109989000E-03 0.  1.
     -623    1    1    2    0    0 -0.34613125031E-01 -0.24136849481E-01  0.30381074727E-01  0.25126753801E+02  0.25126700000E+02 0. -1.
     -611    1    3    3    0    0 -0.14358418392E-02  0.21279542084E-02  0.10595010564E+02  0.10595015595E+02  0.10000000000E-01 0.  1.
      611    1    3    3    0    0 -0.15303831670E-02 -0.33251245785E-01  0.13147623240E+01  0.13152216376E+01  0.10000000000E-01 0. -1.
</event>
<event>
 7   0  0.6206631E-02  0.9118800E+02  0.7818608E-02  0.1180000E+00
       11   -1    0    0    0    0  0.00000000000E+00  0.00000000000E+00  0.11999999989E+02  0.12000000000E+02  0.51109989000E-03 0. -1.
     -623   -1    0    0    0    0  0.00000000000E+00  0.00000000000E+00  0.42561509872E-11  0.25126700000E+02  0.25126700000E+02 0.  1.
      622    2    1    2    0    0  0.31542549488E-01  0.72031585692E-01  0.10964706268E+02  0.10965320997E+02  0.85425739752E-01 0.  0.
       11    1    1    2    0    0 -0.16640887192E-01 -0.57420604673E-01  0.10329415132E+01  0.10346702256E+01  0.51109989000E-03 0. -1.
     -623    1    1    2    0    0 -0.14901662296E-01 -0.14610981019E-01  0.23522082541E-02  0.25126708777E+02  0.25126700000E+02 0.  1.
     -611    1    3    3    0    0  0.15282177187E-01  0.25977268303E-01  0.87339382521E+01  0.87339959786E+01  0.10000000000E-01 0.  1.
      611    1    3    3    0    0  0.16260372301E-01  0.46054317388E-01  0.22307680156E+01  0.22313250187E+01  0.10000000000E-01 0. -1.
</event>
<event>
 7   0  0.6206631E-02  0.9118800E+02  0.7818608E-02  0.1180000E+00
       11   -1    0    0    0    0  0.00000000000E+00  0.00000000000E+00  0.11999999989E+02  0.12000000000E+02  0.51109989000E-03 0.  1.
     -623   -1    0    0    0    0  0.00000000000E+00  0.00000000000E+00  0.42561509872E-11  0.25126700000E+02  0.25126700000E+02 0.  1.
      622    2    1    2    0    0  0.37712797154E-01 -0.25981581824E-01  0.70658580907E+01  0.70667752120E+01  0.10423071773E+00 0.  0.
       11    1    1    2    0    0 -0.57713251484E-01  0.55174395313E-02  0.49328677470E+01  0.49332084622E+01  0.51109989000E-03 0.  1.
     -623    1    1    2    0    0  0.20000454330E-01  0.20464142293E-01  0.12741514766E-02  0.25126716326E+02  0.25126700000E+02 0.  1.
     -611    1    3    3    0    0  0.83424689307E-02  0.96671729497E-02  0.58178905489E+01  0.58179131560E+01  0.10000000000E-01 0.  1.
      611    1    3    3    0    0  0.29370328223E-01 -0.35648754774E-01  0.12479675417E+01  0.12488620561E+01  0.10000000000E-01 0. -1.
</event>
<event>
 7   0  0.6206631E-02  0.9118800E+02  0.7818608E-02  0.1180000E+00
       11   -1    0    0    0    0  0.00000000000E+00  0.00000000000E+00  0.11999999989E+02  0.12000000000E+02  0.51109989000E-03 0.  1.
     -623   -1    0    0    0    0  0.00000000000E+00  0.00000000000E+00  0.42561509872E-11  0.25126700000E+02  0.25126700000E+02 0. -1.
      622    2    1    2    0    0 -0.38585907542E-01 -0.87940129550E-01  0.11054323434E+02  0.11054959247E+02  0.69534444998E-01 0.  0.
       11    1    1    2    0    0  0.14126644482E+00 -0.12015968649E+00  0.92556355278E+00  0.94396118042E+00  0.51109989000E-03 0.  1.
     -623    1    1    2    0    0 -0.10268053728E+00  0.20809981603E+00  0.20113002739E-01  0.25127779573E+02  0.25126700000E+02 0. -1.
     -611    1    3    3    0    0 -0.44518707810E-01 -0.34680545362E-01  0.74864907033E+01  0.74867100722E+01  0.10000000000E-01 0.  1.
      611    1    3    3    0    0  0.59328002677E-02 -0.53259584188E-01  0.35678327304E+01  0.35682491748E+01  0.10000000000E-01 0.  1.
</event>
<event>
 7   0  0.6206631E-02  0.9118800E+02  0.7818608E-02  0.1180000E+00
       11   -1    0    0    0    0  0.00000000000E+00  0.00000000000E+00  0.11999999989E+02  0.12000000000E+02  0.51109989000E-03 0.  1.
     -623   -1    0    0    0    0  0.00000000000E+00  0.00000000000E+00  0.42561509872E-11  0.25126700000E+02  0.25126700000E+02 0. -1.
      622    2    1    2    0    0  0.10914639189E-01 -0.68837598685E-02  0.11211837078E+02  0.11212067860E+02  0.70770876977E-01 0.  0.
       11    1    1    2    0    0 -0.78180250976E-02  0.53503990978E-02  0.78787478140E+00  0.78793190104E+00  0.51109989000E-03 0.  1.
     -623    1    1    2    0    0 -0.30966140912E-02  0.15333607707E-02  0.28812996270E-03  0.25126700239E+02  0.25126700000E+02 0. -1.
     -611    1    3    3    0    0  0.79046114063E-02 -0.11055010251E-01  0.10921565722E+02  0.10921578756E+02  0.10000000000E-01 0.  1.
      611    1    3    3    0    0  0.30100277825E-02  0.41712503820E-02  0.29027135550E+00  0.29048910379E+00  0.10000000000E-01 0.  1.
</event>
<event>
 7   0  0.6206631E-02  0.9118800E+02  0.7818608E-02  0.1180000E+00
       11   -1    0    0    0    0  0.00000000000E+00  0.00000000000E+00  0.11999999989E+02  0.12000000000E+02  0.51109989000E-03 0.  1.
     -623   -1    0    0    0    0  0.00000000000E+00  0.00000000000E+00  0.42561509872E-11  0.25126700000E+02  0.25126700000E+02 0.  1.
      622    2    1    2    0    0 -0.78118455037E-02  0.13295188889E-01  0.11400062437E+02  0.11400610354E+02  0.11070272841E+00 0.  0.
       11    1    1    2    0    0  0.33469193445E-02 -0.81517246103E-02  0.59932371725E+00  0.59938871508E+00  0.51109989000E-03 0.  1.
     -623    1    1    2    0    0  0.44649261593E-02 -0.51434642785E-02  0.61383479619E-03  0.25126700931E+02  0.25126700000E+02 0.  1.
     -611    1    3    3    0    0 -0.45697003652E-01  0.39241355711E-01  0.49467933876E+01  0.49471701932E+01  0.10000000000E-01 0. -1.
      611    1    3    3    0    0  0.37885158149E-01 -0.25946166822E-01  0.64532690494E+01  0.64534401611E+01  0.10000000000E-01 0.  1.
</event>
<event>
 7   0  0.6206631E-02  0.9118800E+02  0.7818608E-02  0.1180000E+00
       11   -1    0    0    0    0  0.00000000000E+00  0.00000000000E+00  0.11999999989E+02  0.12000000000E+02  0.51109989000E-03 0. -1.
     -623   -1    0    0    0    0  0.00000000000E+00  0.00000000000E+00  0.42561509872E-11  0.25126700000E+02  0.25126700000E+02 0. -1.
      622    2    1    2    0    0  0.38556919018E-03 -0.29752176944E-02  0.11987030572E+02  0.11987438326E+02  0.98826548255E-01 0.  0.
       11    1    1    2    0    0 -0.22629075698E-02 -0.26540097893E-02  0.12056196943E-01  0.12560956432E-01  0.51109989000E-03 0. -1.
     -623    1    1    2    0    0  0.18773383796E-02  0.56292274837E-02  0.91321997294E-03  0.25126700717E+02  0.25126700000E+02 0. -1.
     -611    1    3    3    0    0 -0.29575588490E-01  0.91220741501E-02  0.14973556677E+01  0.14977088914E+01  0.10000000000E-01 0.  1.
      611    1    3    3    0    0  0.29961157680E-01 -0.12097291845E-01  0.10489674904E+02  0.10489729435E+02  0.10000000000E-01 0. -1.
</event>
<event>
 7   0  0.6206631E-02  0.9118800E+02  0.7818608E-02  0.1180000E+00
       11   -1    0    0    0    0  0.00000000000E+00  0.00000000000E+00  0.11999999989E+02  0.12000000000E+02  0.51109989000E-03 0.  1.
     -623   -1    0    0    0    0  0.00000000000E+00  0.00000000000E+00  0.42561509872E-11  0.25126700000E+02  0.25126700000E+02 0.  1.
      622    2    1    2    0    0 -0.20595993309E-02 -0.51627187850E-02  0.11964365041E+02  0.11964734186E+02  0.93821163026E-01 0.  0.
       11    1    1    2    0    0 -0.47774480925E-02  0.36386326949E-02  0.34745974650E-01  0.35264821503E-01  0.51109989000E-03 0.  1.
     -623    1    1    2    0    0  0.68370474234E-02  0.15240860901E-02  0.88897306636E-03  0.25126700992E+02  0.25126700000E+02 0.  1.
     -611    1    3    3    0    0  0.28164064547E-01  0.27575716072E-01  0.80514934383E+01  0.80515961288E+01  0.10000000000E-01 0.  1.
      611    1    3    3    0    0 -0.30223663878E-01 -0.32738434857E-01  0.39128716031E+01  0.39131380575E+01  0.10000000000E-01 0.  1.
</event>
<event>
 7   0  0.6206631E-02  0.9118800E+02  0.7818608E-02  0.1180000E+00
       11   -1    0    0    0    0  0.00000000000E+00  0.00000000000E+00  0.11999999989E+02  0.12000000000E+02  0.51109989000E-03 0.  1.
     -623   -1    0    0    0    0  0.00000000000E+00  0.00000000000E+00  0.42561509872E-11  0.25126700000E+02  0.25126700000E+02 0. -1.
      622    2    1    2    0    0 -0.43810213854E-01 -0.21600113765E-01  0.84769020793E+01  0.84773433771E+01  0.71386078549E-01 0.  0.
       11    1    1    2    0    0  0.24670934224E-01 -0.11177753959E-01  0.35225237825E+01  0.35226279476E+01  0.51109989000E-03 0.  1.
     -623    1    1    2    0    0  0.19139279630E-01  0.32777867724E-01  0.57412725071E-03  0.25126728675E+02  0.25126700000E+02 0. -1.
     -611    1    3    3    0    0 -0.10045239871E-01 -0.15329092304E-01  0.60516453902E+00  0.60552457192E+00  0.10000000000E-01 0. -1.
      611    1    3    3    0    0 -0.33764973983E-01 -0.62710214607E-02  0.78717375403E+01  0.78718188052E+01  0.10000000000E-01 0.  1.
</event>
<event>
 7   0  0.6206631E-02  0.9118800E+02  0.7818608E-02  0.1180000E+00
       11   -1    0    0    0    0  0.00000000000E+00  0.00000000000E+00  0.11999999989E+02  0.12000000000E+02  0.51109989000E-03 0.  1.
     -623   -1    0    0    0    0  0.00000000000E+00  0.00000000000E+00  0.42561509872E-11  0.25126700000E+02  0.25126700000E+02 0.  1.
      622    2    1    2    0    0  0.43713790701E-02  0.12077574142E-01  0.10749243335E+02  0.10749440227E+02  0.63780419843E-01 0.  0.
       11    1    1    2    0    0 -0.49463834650E-02 -0.11966535650E-01  0.12504926224E+01  0.12505597645E+01  0.51109989000E-03 0.  1.
     -623    1    1    2    0    0  0.57500439488E-03 -0.11103849184E-03  0.26403142670E-03  0.25126700008E+02  0.25126700000E+02 0.  1.
     -611    1    3    3    0    0 -0.22679779246E-01  0.27457320996E-02  0.21691864648E+01  0.21693298114E+01  0.10000000000E-01 0. -1.
      611    1    3    3    0    0  0.27051158316E-01  0.93318420425E-02  0.85800568705E+01  0.85801104159E+01  0.10000000000E-01 0.  1.
</event>
<event>
 7   0  0.6206631E-02  0.9118800E+02  0.7818608E-02  0.1180000E+00
       11   -1    0    0    0    0  0.00000000000E+00  0.00000000000E+00  0.11999999989E+02  0.12000000000E+02  0.51109989000E-03 0. -1.
     -623   -1    0    0    0    0  0.00000000000E+00  0.00000000000E+00  0.42561509872E-11  0.25126700000E+02  0.25126700000E+02 0. -1.
      622    2    1    2    0    0 -0.97363192837E-02 -0.92829668193E-02  0.99037795575E+01  0.99039222921E+01  0.51441963602E-01 0.  0.
       11    1    1    2    0    0 -0.11447747598E-01 -0.16098836945E-02  0.20960344740E+01  0.20960664159E+01  0.51109989000E-03 0. -1.
     -623    1    1    2    0    0  0.21184066882E-01  0.10892850514E-01  0.18595753935E-03  0.25126711292E+02  0.25126700000E+02 0. -1.
     -611    1    3    3    0    0 -0.97545990504E-02  0.15081166747E-01  0.21567332954E+01  0.21568312640E+01  0.10000000000E-01 0.  1.
      611    1    3    3    0    0  0.18279766740E-04 -0.24364133566E-01  0.77470462621E+01  0.77470910281E+01  0.10000000000E-01 0. -1.
</event>
<event>
 7   0  0.6206631E-02  0.9118800E+02  0.7818608E-02  0.1180000E+00
       11   -1    0    0    0    0  0.00000000000E+00  0.00000000000E+00  0.11999999989E+02  0.12000000000E+02  0.51109989000E-03 0.  1.
     -623   -1    0    0    0    0  0.00000000000E+00  0.00000000000E+00  0.42561509872E-11  0.25126700000E+02  0.25126700000E+02 0.  1.
      622    2    1    2    0    0  0.10938113853E-01  0.59524773405E-02  0.11765512687E+02  0.11765939485E+02  0.99438996779E-01 0.  0.
       11    1    1    2    0    0 -0.13065080506E-01 -0.38357144439E-02  0.23366335655E+00  0.23406032225E+00  0.51109989000E-03 0.  1.
     -623    1    1    2    0    0  0.21269666530E-02 -0.21167628966E-02  0.82394600969E-03  0.25126700193E+02  0.25126700000E+02 0.  1.
     -611    1    3    3    0    0 -0.97246595649E-02  0.34170784054E-01  0.99182697500E+01  0.99183384216E+01  0.10000000000E-01 0.  1.
      611    1    3    3    0    0  0.20662773417E-01 -0.28218306713E-01  0.18472429366E+01  0.18476010635E+01  0.10000000000E-01 0. -1.
</event>
<event>
 7   0  0.6206631E-02  0.9118800E+02  0.7818608E-02  0.1180000E+00
       11   -1    0    0    0    0  0.00000000000E+00  0.00000000000E+00  0.11999999989E+02  0.12000000000E+02  0.51109989000E-03 0.  1.
     -623   -1    0    0    0    0  0.00000000000E+00  0.00000000000E+00  0.42561509872E-11  0.25126700000E+02  0.25126700000E+02 0. -1.
      622    2    1    2    0    0 -0.17374895670E-01 -0.13088248759E-01  0.11733379607E+02  0.11733862813E+02  0.10424168928E+00 0.  0.
       11    1    1    2    0    0  0.12412821545E-01  0.22277530961E-01  0.26490977379E+00  0.26613495824E+00  0.51109989000E-03 0.  1.
     -623    1    1    2    0    0  0.49620741258E-02 -0.91892822017E-02  0.17106083856E-02  0.25126702229E+02  0.25126700000E+02 0. -1.
     -611    1    3    3    0    0  0.24668078737E-01  0.58063641037E-02  0.97694509957E+00  0.97732489764E+00  0.10000000000E-01 0. -1.
      611    1    3    3    0    0 -0.42042974407E-01 -0.18894612863E-01  0.10756434507E+02  0.10756537916E+02  0.10000000000E-01 0.  1.
</event>
<event>
 7   0  0.6206631E-02  0.9118800E+02  0.7818608E-02  0.1180000E+00
       11   -1    0    0    0    0  0.00000000000E+00  0.00000000000E+00  0.11999999989E+02  0.12000000000E+02  0.51109989000E-03 0. -1.
     -623   -1    0    0    0    0  0.00000000000E+00  0.00000000000E+00  0.42561509872E-11  0.25126700000E+02  0.25126700000E+02 0.  1.
      622    2    1    2    0    0  0.21274627338E-01 -0.40802244490E-02  0.94311509592E+01  0.94313923594E+01  0.63907464879E-01 0.  0.
       11    1    1    2    0    0 -0.21730102539E-01  0.36825756733E-02  0.25685130216E+01  0.25686076310E+01  0.51109989000E-03 0. -1.
     -623    1    1    2    0    0  0.45547520111E-03  0.39764877581E-03  0.33600826715E-03  0.25126700010E+02  0.25126700000E+02 0.  1.
     -611    1    3    3    0    0 -0.14208769570E-01  0.17341793325E-01  0.30341290588E+01  0.30342283653E+01  0.10000000000E-01 0.  1.
      611    1    3    3    0    0  0.35483396909E-01 -0.21422017774E-01  0.63970219004E+01  0.63971639942E+01  0.10000000000E-01 0. -1.
</event>
<event>
 7   0  0.6206631E-02  0.9118800E+02  0.7818608E-02  0.1180000E+00
       11   -1    0    0    0    0  0.00000000000E+00  0.00000000000E+00  0.11999999989E+02  0.12000000000E+02  0.51109989000E-03 0.  1.
     -623   -1    0    0    0    0  0.00000000000E+00  0.00000000000E+00  0.42561509872E-11  0.25126700000E+02  0.25126700000E+02 0. -1.
      622    2    1    2    0    0 -0.37328098251E-02  0.20431392361E-01  0.71205796557E+01  0.71208806487E+01  0.62090289753E-01 0.  0.
       11    1    1    2    0    0 -0.14688973030E-01  0.19443902487E-01  0.48790200727E+01  0.48790809547E+01  0.51109989000E-03 0.  1.
     -623    1    1    2    0    0  0.18421782855E-01 -0.39875294848E-01  0.40026069528E-03  0.25126738397E+02  0.25126700000E+02 0. -1.
     -611    1    3    3    0    0 -0.13402519654E-01  0.34026762814E-01  0.60864429034E+01  0.60865609883E+01  0.10000000000E-01 0.  1.
      611    1    3    3    0    0  0.96697098287E-02 -0.13595370454E-01  0.10341367523E+01  0.10343196604E+01  0.10000000000E-01 0. -1.
</event>
<event>
 7   0  0.6206631E-02  0.9118800E+02  0.7818608E-02  0.1180000E+00
       11   -1    0    0    0    0  0.00000000000E+00  0.00000000000E+00  0.11999999989E+02  0.12000000000E+02  0.51109989000E-03 0.  1.
     -623   -1    0    0    0    0  0.00000000000E+00  0.00000000000E+00  0.42561509872E-11  0.25126700000E+02  0.25126700000E+02 0. -1.
      622    2    1    2    0    0 -0.12765771597E-01 -0.81386256719E-02  0.11792206318E+02  0.11792900734E+02  0.12707741561E+00 0.  0.
       11    1    1    2    0    0  0.19134526651E-02  0.80265855340E-02  0.20693182536E+00  0.20709690714E+00  0.51109989000E-03 0.  1.
     -623    1    1    2    0    0  0.10852318932E-01  0.11204013794E-03  0.86184533907E-03  0.25126702359E+02  0.25126700000E+02 0. -1.
     -611    1    3    3    0    0 -0.43612462409E-01 -0.44066141117E-01  0.93728642494E+01  0.93730746348E+01  0.10000000000E-01 0.  1.
      611    1    3    3    0    0  0.30846690811E-01  0.35927515445E-01  0.24193420691E+01  0.24198260995E+01  0.10000000000E-01 0. -1.
</event>
<event>
 7   0  0.6206631E-02  0.9118800E+02  0.7818608E-02  0.1180000E+00
       11   -1    0    0    0    0  0.00000000000E+00  0.00000000000E+00  0.11999999989E+02  0.12000000000E+02  0.51109989000E-03 0.  1.
     -623   -1    0    0    0    0  0.00000000000E+00  0.00000000000E+00  0.42561509872E-11  0.25126700000E+02  0.25126700000E+02 0. -1.
      622    2    1    2    0    0  0.10470773879E-01 -0.64893975248E-02  0.11535801973E+02  0.11536325753E+02  0.10923815824E+00 0.  0.
       11    1    1    2    0    0 -0.10830331625E-01  0.88379968454E-02  0.46346307882E+00  0.46367412363E+00  0.51109989000E-03 0.  1.
     -623    1    1    2    0    0  0.35955774548E-03 -0.23485993206E-02  0.73493725267E-03  0.25126700123E+02  0.25126700000E+02 0. -1.
     -611    1    3    3    0    0 -0.14137791479E-01  0.16687885945E-01  0.10282390904E+02  0.10282419028E+02  0.10000000000E-01 0.  1.
      611    1    3    3    0    0  0.24608565358E-01 -0.23177283470E-01  0.12534110689E+01  0.12539067252E+01  0.10000000000E-01 0. -1.
</event>
<event>
 6   0  0.6206631E-02  0.9118800E+02  0.7818608E-02  0.1180000E+00
       11   -1    0    0    0    0  0.00000000000E+00  0.00000000000E+00  0.11999999989E+02  0.12000000000E+02  0.51109989000E-03 0.  1.
     -623   -1    0    0    0    0  0.00000000000E+00  0.00000000000E+00  0.42561509872E-11  0.25126700000E+02  0.25126700000E+02 0. -1.
       11    1    1    2    0    0  0.25288559758E-01  0.67531836783E-02  0.26243709606E+00  0.26373965829E+00  0.51109989000E-03 0.  1.
     -623    1    1    2    0    0 -0.46475482469E-02 -0.25849958274E-02  0.64677312373E-02  0.25126701395E+02  0.25126700000E+02 0. -1.
     -611    1    1    2    0    0 -0.13548163428E+00 -0.40054653749E-02  0.20607953626E+01  0.20652720991E+01  0.10000000000E-01 0. -1.
      611    1    1    2    0    0  0.11484062277E+00 -0.16272247611E-03  0.96702997992E+01  0.96709868474E+01  0.10000000000E-01 0.  1.
</event>
<event>
 7   0  0.6206631E-02  0.9118800E+02  0.7818608E-02  0.1180000E+00
       11   -1    0    0    0    0  0.00000000000E+00  0.00000000000E+00  0.11999999989E+02  0.12000000000E+02  0.51109989000E-03 0.  1.
     -623   -1    0    0    0    0  0.00000000000E+00  0.00000000000E+00  0.42561509872E-11  0.25126700000E+02  0.25126700000E+02 0. -1.
      622    2    1    2    0    0  0.76750585374E-02 -0.51053010358E-02  0.10714193079E+02  0.10714394518E+02  0.65050545797E-01 0.  0.
       11    1    1    2    0    0 -0.66391697980E-02  0.29916772246E-02  0.12855846452E+01  0.12856053709E+01  0.51109989000E-03 0.  1.
     -623    1    1    2    0    0 -0.10358887394E-02  0.21136238112E-02  0.22226471275E-03  0.25126700111E+02  0.25126700000E+02 0. -1.
     -611    1    3    3    0    0  0.25400475410E-01  0.32659982822E-02  0.21837746774E+01  0.21839477312E+01  0.10000000000E-01 0.  1.
      611    1    3    3    0    0 -0.17725416873E-01 -0.83712993180E-02  0.85304184019E+01  0.85304467866E+01  0.10000000000E-01 0.  1.
</event>
<event>
 7   0  0.6206631E-02  0.9118800E+02  0.7818608E-02  0.1180000E+00
       11   -1    0    0    0    0  0.00000000000E+00  0.00000000000E+00  0.11999999989E+02  0.12000000000E+02  0.51109989000E-03 0.  1.
     -623   -1    0    0    0    0  0.00000000000E+00  0.00000000000E+00  0.42561509872E-11  0.25126700000E+02  0.25126700000E+02 0. -1.
      622    2    1    2    0    0  0.21877436199E-01  0.29907782248E-01  0.11305413729E+02  0.11305947483E+02  0.10342053709E+00 0.  0.
       11    1    1    2    0    0  0.62845306622E-02 -0.27852711900E-01  0.69344884994E+00  0.69403662554E+00  0.51109989000E-03 0.  1.
     -623    1    1    2    0    0 -0.28161966862E-01 -0.20550703482E-02  0.11374104732E-02  0.25126715892E+02  0.25126700000E+02 0. -1.
     -611    1    3    3    0    0 -0.15087294394E-01 -0.26586921756E-01  0.61214859087E+01  0.61215704049E+01  0.10000000000E-01 0.  1.
      611    1    3    3    0    0  0.36964730593E-01  0.56494704004E-01  0.51839278199E+01  0.51843770778E+01  0.10000000000E-01 0. -1.
</event>
<event>
 7   0  0.6206631E-02  0.9118800E+02  0.7818608E-02  0.1180000E+00
       11   -1    0    0    0    0  0.00000000000E+00  0.00000000000E+00  0.11999999989E+02  0.12000000000E+02  0.51109989000E-03 0.  1.
     -623   -1    0    0    0    0  0.00000000000E+00  0.00000000000E+00  0.42561509872E-11  0.25126700000E+02  0.25126700000E+02 0. -1.
      622    2    1    2    0    0  0.93996163817E-02  0.14149287936E-01  0.11749782402E+02  0.11750338091E+02  0.11300534880E+00 0.  0.
       11    1    1    2    0    0 -0.53377571099E-02 -0.11149162269E-01  0.24935466982E+00  0.24966138679E+00  0.51109989000E-03 0.  1.
     -623    1    1    2    0    0 -0.40618592718E-02 -0.30001256674E-02  0.86291756163E-03  0.25126700522E+02  0.25126700000E+02 0. -1.
     -611    1    3    3    0    0 -0.25076456413E-01  0.61457020245E-02  0.77556712634E+00  0.77606118688E+00  0.10000000000E-01 0. -1.
      611    1    3    3    0    0  0.34476072794E-01  0.80035859120E-02  0.10974215275E+02  0.10974276904E+02  0.10000000000E-01 0.  1.
</event>
<event>
 7   0  0.6206631E-02  0.9118800E+02  0.7818608E-02  0.1180000E+00
       11   -1    0    0    0    0  0.00000000000E+00  0.00000000000E+00  0.11999999989E+02  0.12000000000E+02  0.51109989000E-03 0. -1.
     -623   -1    0    0    0    0  0.00000000000E+00  0.00000000000E+00  0.42561509872E-11  0.25126700000E+02  0.25126700000E+02 0. -1.
      622    2    1    2    0    0 -0.15833562196E-01  0.20520330988E-01  0.11973705062E+02  0.11974473692E+02  0.13317474673E+00 0.  0.
       11    1    1    2    0    0 -0.86055203270E-04 -0.13464209042E-01  0.21672773835E-01  0.25519848735E-01  0.51109989000E-03 0. -1.
     -623    1    1    2    0    0  0.15919617399E-01 -0.70561219464E-02  0.46221534583E-02  0.25126706459E+02  0.25126700000E+02 0. -1.
     -611    1    3    3    0    0 -0.32552634098E-01  0.88967489132E-02  0.11614328385E+02  0.11614381716E+02  0.10000000000E-01 0. -1.
      611    1    3    3    0    0  0.16719071902E-01  0.11623582075E-01  0.35937667708E+00  0.36009197583E+00  0.10000000000E-01 0. -1.
</event>
<event>
 7   0  0.6206631E-02  0.9118800E+02  0.7818608E-02  0.1180000E+00
       11   -1    0    0    0    0  0.00000000000E+00  0.00000000000E+00  0.11999999989E+02  0.12000000000E+02  0.51109989000E-03 0. -1.
     -623   -1    0    0    0    0  0.00000000000E+00  0.00000000000E+00  0.42561509872E-11  0.25126700000E+02  0.25126700000E+02 0. -1.
      622    2    1    2    0    0 -0.10175012630E-02 -0.55711528903E-02  0.11879758195E+02  0.11880798757E+02  0.15713769823E+00 0.  0.
       11    1    1    2    0    0  0.22666188200E-02 -0.10772078764E-02  0.11917279308E+00  0.11920030944E+00  0.51109989000E-03 0. -1.
     -623    1    1    2    0    0 -0.12491175570E-02  0.66483607667E-02  0.10690006848E-02  0.25126700933E+02  0.25126700000E+02 0. -1.
     -611    1    3    3    0    0  0.28771070377E-01  0.44804401439E-01  0.99051560397E+01  0.99053042043E+01  0.10000000000E-01 0. -1.
      611    1    3    3    0    0 -0.29788571640E-01 -0.50375554329E-01  0.19746021556E+01  0.19754945529E+01  0.10000000000E-01 0.  1.
</event>
<event>
 7   0  0.6206631E-02  0.9118800E+02  0.7818608E-02  0.1180000E+00
       11   -1    0    0    0    0  0.00000000000E+00  0.00000000000E+00  0.11999999989E+02  0.12000000000E+02  0.51109989000E-03 0. -1.
     -623   -1    0    0    0    0  0.00000000000E+00  0.00000000000E+00  0.42561509872E-11  0.25126700000E+02  0.25126700000E+02 0. -1.
      622    2    1    2    0    0  0.26083102373E-01  0.14247280245E-01  0.78124351874E+01  0.78129271927E+01  0.82489076787E-01 0.  0.
       11    1    1    2    0    0 -0.28656385929E-01 -0.10599994621E-01  0.41869608910E+01  0.41870724036E+01  0.51109989000E-03 0. -1.
     -623    1    1    2    0    0  0.25732835554E-02 -0.36472856242E-02  0.60391067267E-03  0.25126700404E+02  0.25126700000E+02 0. -1.
     -611    1    3    3    0    0 -0.24126924875E-01  0.22395397629E-01  0.38319382330E+01  0.38320926769E+01  0.10000000000E-01 0. -1.
      611    1    3    3    0    0  0.50210027249E-01 -0.81481173840E-02  0.39804969544E+01  0.39808345159E+01  0.10000000000E-01 0.  1.
</event>
<event>
 7   0  0.6206631E-02  0.9118800E+02  0.7818608E-02  0.1180000E+00
       11   -1    0    0    0    0  0.00000000000E+00  0.00000000000E+00  0.11999999989E+02  0.12000000000E+02  0.51109989000E-03 0.  1.
     -623   -1    0    0    0    0  0.00000000000E+00  0.00000000000E+00  0.42561509872E-11  0.25126700000E+02  0.25126700000E+02 0. -1.
      622    2    1    2    0    0 -0.44914899816E-04  0.32158181824E-02  0.11939921968E+02  0.11940317044E+02  0.97078165490E-01 0.  0.
       11    1    1    2    0    0  0.39488605473E-02 -0.62851984777E-02  0.59216859304E-01  0.59682450256E-01  0.51109989000E-03 0.  1.
     -623    1    1    2    0    0 -0.39039456475E-02  0.30693802953E-02  0.86116176402E-03  0.25126700506E+02  0.25126700000E+02 0. -1.
     -611    1    3    3    0    0  0.47287887794E-02 -0.24347984701E-01  0.10079482746E+01  0.10083029852E+01  0.10000000000E-01 0. -1.
      611    1    3    3    0    0 -0.47737036793E-02  0.27563802884E-01  0.10931973693E+02  0.10932014059E+02  0.10000000000E-01 0.  1.
</event>
<event>
 7   0  0.6206631E-02  0.9118800E+02  0.7818608E-02  0.1180000E+00
       11   -1    0    0    0    0  0.00000000000E+00  0.00000000000E+00  0.11999999989E+02  0.12000000000E+02  0.51109989000E-03 0.  1.
     -623   -1    0    0    0    0  0.00000000000E+00  0.00000000000E+00  0.42561509872E-11  0.25126700000E+02  0.25126700000E+02 0. -1.
      622    2    1    2    0    0 -0.24825421905E-01  0.30435869436E-01  0.49696216528E+01  0.49704253583E+01  0.80288394053E-01 0.  0.
       11    1    1    2    0    0  0.29375870318E-01 -0.36482188722E-01  0.70294174162E+01  0.70295734838E+01  0.51109989000E-03 0.  1.
     -623    1    1    2    0    0 -0.45504484136E-02  0.60463192857E-02  0.96092006623E-03  0.25126701158E+02  0.25126700000E+02 0. -1.
     -611    1    3    3    0    0 -0.45184706575E-01  0.41626537996E-02  0.17504535729E+01  0.17510701575E+01  0.10000000000E-01 0.  1.
      611    1    3    3    0    0  0.20359284670E-01  0.26273215637E-01  0.32191680799E+01  0.32193552008E+01  0.10000000000E-01 0. -1.
</event>
<event>
 7   0  0.6206631E-02  0.9118800E+02  0.7818608E-02  0.1180000E+00
       11   -1    0    0    0    0  0.00000000000E+00  0.00000000000E+00  0.11999999989E+02  0.12000000000E+02  0.51109989000E-03 0. -1.
     -623   -1    0    0    0    0  0.00000000000E+00  0.00000000000E+00  0.42561509872E-11  0.25126700000E+02  0.25126700000E+02 0.  1.
      622    2    1    2    0    0  0.62207305235E-02  0.60291544587E-02  0.11903587546E+02  0.11904016415E+02  0.10067425033E+00 0.  0.
       11    1    1    2    0    0 -0.56506043633E-02  0.72807894309E-02  0.95535161941E-01  0.95980037584E-01  0.51109989000E-03 0. -1.
     -623    1    1    2    0    0 -0.57012616021E-03 -0.13309943890E-01  0.87728117385E-03  0.25126703547E+02  0.25126700000E+02 0.  1.
     -611    1    3    3    0    0  0.23870352034E-01 -0.13512087832E-01  0.10864631904E+01  0.10868553880E+01  0.10000000000E-01 0. -1.
      611    1    3    3    0    0 -0.17649621510E-01  0.19541242290E-01  0.10817124356E+02  0.10817161027E+02  0.10000000000E-01 0. -1.
</event>
<event>
 7   0  0.6206631E-02  0.9118800E+02  0.7818608E-02  0.1180000E+00
       11   -1    0    0    0    0  0.00000000000E+00  0.00000000000E+00  0.11999999989E+02  0.12000000000E+02  0.51109989000E-03 0. -1.
     -623   -1    0    0    0    0  0.00000000000E+00  0.00000000000E+00  0.42561509872E-11  0.25126700000E+02  0.25126700000E+02 0.  1.
      622    2    1    2    0    0 -0.38200125481E-02  0.34247150899E-02  0.11616141612E+02  0.11616457595E+02  0.85526527981E-01 0.  0.
       11    1    1    2    0    0  0.10888950995E-02 -0.50412058853E-02  0.38350718410E+00  0.38354220228E+00  0.51109989000E-03 0. -1.
     -623    1    1    2    0    0  0.27311174486E-02  0.16164907953E-02  0.35119325394E-03  0.25126700203E+02  0.25126700000E+02 0.  1.
     -611    1    3    3    0    0 -0.18364716063E-01  0.38936368219E-01  0.73008635559E+01  0.73009973267E+01  0.10000000000E-01 0. -1.
      611    1    3    3    0    0  0.14544703515E-01 -0.35511653129E-01  0.43152780559E+01  0.43154602681E+01  0.10000000000E-01 0.  1.
</event>
<event>
 7   0  0.6206631E-02  0.9118800E+02  0.7818608E-02  0.1180000E+00
       11   -1    0    0    0    0  0.00000000000E+00  0.00000000000E+00  0.11999999989E+02  0.12000000000E+02  0.51109989000E-03 0.  1.
     -623   -1    0    0    0    0  0.00000000000E+00  0.00000000000E+00  0.42561509872E-11  0.25126700000E+02  0.25126700000E+02 0. -1.
      622    2    1    2    0    0 -0.51447626320E-01  0.40500537194E-01  0.11929234151E+02  0.11929776556E+02  0.93027362510E-01 0.  0.
       11    1    1    2    0    0  0.14341588358E-01 -0.28750606353E-01  0.62404840799E-01  0.70191907657E-01  0.51109989000E-03 0.  1.
     -623    1    1    2    0    0  0.37106037962E-01 -0.11749930841E-01  0.83609974349E-02  0.25126731537E+02  0.25126700000E+02 0. -1.
     -611    1    3    3    0    0 -0.31562284276E-01  0.47360442679E-01  0.11240780836E+02  0.11240929365E+02  0.10000000000E-01 0.  1.
      611    1    3    3    0    0 -0.19885342044E-01 -0.68599054853E-02  0.68845331455E+00  0.68884719020E+00  0.10000000000E-01 0. -1.
</event>
<event>
 7   0  0.6206631E-02  0.9118800E+02  0.7818608E-02  0.1180000E+00
       11   -1    0    0    0    0  0.00000000000E+00  0.00000000000E+00  0.11999999989E+02  0.12000000000E+02  0.51109989000E-03 0.  1.
     -623   -1    0    0    0    0  0.00000000000E+00  0.00000000000E+00  0.42561509872E-11  0.25126700000E+02  0.25126700000E+02 0.  1.
      622    2    1    2    0    0  0.20716205791E-01 -0.88095643566E-03  0.11679081621E+02  0.11679356257E+02  0.77363711883E-01 0.  0.
       11    1    1    2    0    0 -0.24467950204E-01 -0.20951514686E-01  0.31901127481E+00  0.32063390531E+00  0.51109989000E-03 0.  1.
     -623    1    1    2    0    0  0.37517444126E-02  0.21832471122E-01  0.19070937152E-02  0.25126709838E+02  0.25126700000E+02 0.  1.
     -611    1    3    3    0    0  0.57166086287E-02  0.44774404081E-02  0.29459401249E+00  0.29485311476E+00  0.10000000000E-01 0.  1.
      611    1    3    3    0    0  0.14999597162E-01 -0.53583968438E-02  0.11384487608E+02  0.11384503142E+02  0.10000000000E-01 0.  1.
</event>
<event>
 7   0  0.6206631E-02  0.9118800E+02  0.7818608E-02  0.1180000E+00
       11   -1    0    0    0    0  0.00000000000E+00  0.00000000000E+00  0.11999999989E+02  0.12000000000E+02  0.51109989000E-03 0. -1.
     -623   -1    0    0    0    0  0.00000000000E+00  0.00000000000E+00  0.42561509872E-11  0.25126700000E+02  0.25126700000E+02 0. -1.
      622    2    1    2    0    0 -0.25154930506E-01  0.17325982006E-02  0.99250440407E+01  0.99256562120E+01  0.10731382332E+00 0.  0.
       11    1    1    2    0    0  0.25164244882E-01  0.10885193092E-04  0.20741910112E+01  0.20743437159E+01  0.51109989000E-03 0. -1.
     -623    1    1    2    0    0 -0.93143757271E-05 -0.17434833937E-02  0.76493721399E-03  0.25126700072E+02  0.25126700000E+02 0. -1.
     -611    1    3    3    0    0  0.14701277309E-03  0.33946474537E-01  0.82681513162E+01  0.82682270513E+01  0.10000000000E-01 0. -1.
      611    1    3    3    0    0 -0.25301943279E-01 -0.32213876337E-01  0.16568927245E+01  0.16574291607E+01  0.10000000000E-01 0.  1.
</event>
<event>
 7   0  0.6206631E-02  0.9118800E+02  0.7818608E-02  0.1180000E+00
       11   -1    0    0    0    0  0.00000000000E+00  0.00000000000E+00  0.11999999989E+02  0.12000000000E+02  0.51109989000E-03 0.  1.
     -623   -1    0    0    0    0  0.00000000000E+00  0.00000000000E+00  0.42561509872E-11  0.25126700000E+02  0.25126700000E+02 0.  1.
      622    2    1    2    0    0 -0.36451872588E-02 -0.19104035859E-01  0.11310148481E+02  0.11310631410E+02  0.10269357799E+00 0.  0.
       11    1    1    2    0    0  0.71180438725E-02  0.16882748681E-01  0.68912452932E+00  0.68936824114E+00  0.51109989000E-03 0.  1.
     -623    1    1    2    0    0 -0.34728566138E-02  0.22212871774E-02  0.72697827744E-03  0.25126700349E+02  0.25126700000E+02 0.  1.
     -611    1    3    3    0    0  0.36752442704E-02 -0.91302242610E-02  0.11043447226E+02  0.11043456139E+02  0.10000000000E-01 0.  1.
      611    1    3    3    0    0 -0.73204315291E-02 -0.99738115975E-02  0.26670125584E+00  0.26717527113E+00  0.10000000000E-01 0. -1.
</event>
<event>
 7   0  0.6206631E-02  0.9118800E+02  0.7818608E-02  0.1180000E+00
       11   -1    0    0    0    0  0.00000000000E+00  0.00000000000E+00  0.11999999989E+02  0.12000000000E+02  0.51109989000E-03 0.  1.
     -623   -1    0    0    0    0  0.00000000000E+00  0.00000000000E+00  0.42561509872E-11  0.25126700000E+02  0.25126700000E+02 0.  1.
      622    2    1    2    0    0  0.11843457625E-02  0.28381571892E-01  0.10270621210E+02  0.10271211016E+02  0.10634274188E+00 0.  0.
       11    1    1    2    0    0  0.24193138438E-03 -0.20020978957E-01  0.17286715155E+01  0.17287875427E+01  0.51109989000E-03 0.  1.
     -623    1    1    2    0    0 -0.14262771469E-02 -0.83605929358E-02  0.70726367072E-03  0.25126701441E+02  0.25126700000E+02 0.  1.
     -611    1    3    3    0    0  0.36944140424E-01 -0.24422339339E-01  0.44760403858E+01  0.44762706415E+01  0.10000000000E-01 0. -1.
      611    1    3    3    0    0 -0.35759794662E-01  0.52803911231E-01  0.57945808241E+01  0.57949403744E+01  0.10000000000E-01 0.  1.
</event>
<event>
 7   0  0.6206631E-02  0.9118800E+02  0.7818608E-02  0.1180000E+00
       11   -1    0    0    0    0  0.00000000000E+00  0.00000000000E+00  0.11999999989E+02  0.12000000000E+02  0.51109989000E-03 0. -1.
     -623   -1    0    0    0    0  0.00000000000E+00  0.00000000000E+00  0.42561509872E-11  0.25126700000E+02  0.25126700000E+02 0.  1.
      622    2    1    2    0    0  0.76808275816E-02 -0.46056563418E-02  0.11960632547E+02  0.11961061688E+02  0.10092357098E+00 0.  0.
       11    1    1    2    0    0 -0.83565344586E-02 -0.13530672372E-03  0.38026866814E-01  0.38937819648E-01  0.51109989000E-03 0. -1.
     -623    1    1    2    0    0  0.67570687698E-03  0.47409630655E-02  0.13405748416E-02  0.25126700492E+02  0.25126700000E+02 0.  1.
     -611    1    3    3    0    0  0.48413164692E-01 -0.14928549994E-01  0.43488085939E+01  0.43491151838E+01  0.10000000000E-01 0. -1.
      611    1    3    3    0    0 -0.40732337110E-01  0.10322893653E-01  0.76118239536E+01  0.76119465044E+01  0.10000000000E-01 0. -1.
</event>
<event>
 7   0  0.6206631E-02  0.9118800E+02  0.7818608E-02  0.1180000E+00
       11   -1    0    0    0    0  0.00000000000E+00  0.00000000000E+00  0.11999999989E+02  0.12000000000E+02  0.51109989000E-03 0. -1.
     -623   -1    0    0    0    0  0.00000000000E+00  0.00000000000E+00  0.42561509872E-11  0.25126700000E+02  0.25126700000E+02 0. -1.
      622    2    1    2    0    0 -0.11783224561E-01 -0.37331994051E-02  0.11380539130E+02  0.11380972863E+02  0.98588190603E-01 0.  0.
       11    1    1    2    0    0  0.14838323196E-01  0.21472696144E-02  0.61884509130E+00  0.61902689348E+00  0.51109989000E-03 0. -1.
     -623    1    1    2    0    0 -0.30550986355E-02  0.15859297907E-02  0.61576734503E-03  0.25126700243E+02  0.25126700000E+02 0. -1.
     -611    1    3    3    0    0 -0.48846142118E-01  0.17587220098E-01  0.49073287742E+01  0.49076135702E+01  0.10000000000E-01 0. -1.
      611    1    3    3    0    0  0.37062917557E-01 -0.21320419503E-01  0.64732103562E+01  0.64733592930E+01  0.10000000000E-01 0.  1.
</event>
<event>
 7   0  0.6206631E-02  0.9118800E+02  0.7818608E-02  0.1180000E+00
       11   -1    0    0    0    0  0.00000000000E+00  0.00000000000E+00  0.11999999989E+02  0.12000000000E+02  0.51109989000E-03 0.  1.
     -623   -1    0    0    0    0  0.00000000000E+00  0.00000000000E+00  0.42561509872E-11  0.25126700000E+02  0.25126700000E+02 0.  1.
      622    2    1    2    0    0 -0.16494617186E-01  0.23748737339E-01  0.90836778543E+01  0.90841498113E+01  0.87967942729E-01 0.  0.
       11    1    1    2    0    0  0.66261378569E-02 -0.14455571979E-01  0.29158031205E+01  0.29158465269E+01  0.51109989000E-03 0.  1.
     -623    1    1    2    0    0  0.98684793289E-02 -0.92931653599E-02  0.51901429501E-03  0.25126703662E+02  0.25126700000E+02 0.  1.
     -611    1    3    3    0    0 -0.92185783345E-02  0.24730347465E-01  0.89037705011E+01  0.89038152333E+01  0.10000000000E-01 0.  1.
      611    1    3    3    0    0 -0.72760388513E-02 -0.98161012648E-03  0.17990735316E+00  0.18033457800E+00  0.10000000000E-01 0.  1.
</event>
<event>
 7   0  0.6206631E-02  0.9118800E+02  0.7818608E-02  0.1180000E+00
       11   -1    0    0    0    0  0.00000000000E+00  0.00000000000E+00  0.11999999989E+02  0.12000000000E+02  0.51109989000E-03 0. -1.
     -623   -1    0    0    0    0  0.00000000000E+00  0.00000000000E+00  0.42561509872E-11  0.25126700000E+02  0.25126700000E+02 0. -1.
      622    2    1    2    0    0 -0.91378360541E-02 -0.34311358947E-01  0.11063741237E+02  0.11064107481E+02  0.82724975731E-01 0.  0.
       11    1    1    2    0    0  0.21386981453E-01  0.33296968749E-01  0.93505228367E+00  0.93588948361E+00  0.51109989000E-03 0. -1.
     -623    1    1    2    0    0 -0.12249145399E-01  0.10143901985E-02  0.12064681585E-02  0.25126703035E+02  0.25126700000E+02 0. -1.
     -611    1    3    3    0    0 -0.17089973922E-01 -0.54280626285E-01  0.96035620236E+01  0.96037358353E+01  0.10000000000E-01 0. -1.
      611    1    3    3    0    0  0.79521378683E-02  0.19969267338E-01  0.14601792137E+01  0.14603716459E+01  0.10000000000E-01 0.  1.
</event>
<event>
 7   0  0.6206631E-02  0.9118800E+02  0.7818608E-02  0.1180000E+00
       11   -1    0    0    0    0  0.00000000000E+00  0.00000000000E+00  0.11999999989E+02  0.12000000000E+02  0.51109989000E-03 0.  1.
     -623   -1    0    0    0    0  0.00000000000E+00  0.00000000000E+00  0.42561509872E-11  0.25126700000E+02  0.25126700000E+02 0.  1.
      622    2    1    2    0    0 -0.55945896211E-02  0.10423686340E-02  0.11875422913E+02  0.11875738927E+02  0.86448419558E-01 0.  0.
       11    1    1    2    0    0  0.20971506585E-02  0.87712349963E-03  0.12423890806E+00  0.12426075360E+00  0.51109989000E-03 0.  1.
     -623    1    1    2    0    0  0.34974389626E-02 -0.19194921336E-02  0.33816831719E-03  0.25126700319E+02  0.25126700000E+02 0.  1.
     -611    1    3    3    0    0 -0.17513645161E-01  0.10900165103E-01  0.87401344311E+00  0.87431403975E+00  0.10000000000E-01 0.  1.
      611    1    3    3    0    0  0.11919055540E-01 -0.98577964686E-02  0.11001409470E+02  0.11001424888E+02  0.10000000000E-01 0.  1.
</event>
<event>
 7   0  0.6206631E-02  0.9118800E+02  0.7818608E-02  0.1180000E+00
       11   -1    0    0    0    0  0.00000000000E+00  0.00000000000E+00  0.11999999989E+02  0.12000000000E+02  0.51109989000E-03 0. -1.
     -623   -1    0    0    0    0  0.00000000000E+00  0.00000000000E+00  0.42561509872E-11  0.25126700000E+02  0.25126700000E+02 0.  1.
      622    2    1    2    0    0  0.21541398171E-01  0.63331637366E-02  0.11751488527E+02  0.11751885891E+02  0.93995998473E-01 0.  0.
       11    1    1    2    0    0 -0.13453512812E-01 -0.13782159820E-01  0.24736248297E+00  0.24811167675E+00  0.51109989000E-03 0. -1.
     -623    1    1    2    0    0 -0.80878853593E-02  0.74489960834E-02  0.11489787373E-02  0.25126702432E+02  0.25126700000E+02 0.  1.
     -611    1    3    3    0    0  0.95040664252E-03  0.29095219512E-01  0.10268159865E+02  0.10268206000E+02  0.10000000000E-01 0. -1.
      611    1    3    3    0    0  0.20590991528E-01 -0.22762055776E-01  0.14833286622E+01  0.14836798914E+01  0.10000000000E-01 0.  1.
</event>
<event>
 7   0  0.6206631E-02  0.9118800E+02  0.7818608E-02  0.1180000E+00
       11   -1    0    0    0    0  0.00000000000E+00  0.00000000000E+00  0.11999999989E+02  0.12000000000E+02  0.51109989000E-03 0. -1.
     -623   -1    0    0    0    0  0.00000000000E+00  0.00000000000E+00  0.42561509872E-11  0.25126700000E+02  0.25126700000E+02 0. -1.
      622    2    1    2    0    0  0.38644514304E-02  0.14549394563E-01  0.11870819501E+02  0.11871200091E+02  0.93858245093E-01 0.  0.
       11    1    1    2    0    0 -0.30975470175E-02 -0.14533120983E-01  0.12793880566E+00  0.12879986654E+00  0.51109989000E-03 0. -1.
     -623    1    1    2    0    0 -0.76690441288E-03 -0.16273579681E-04  0.12416829670E-02  0.25126700042E+02  0.25126700000E+02 0. -1.
     -611    1    3    3    0    0 -0.61213240319E-02  0.19580849577E-01  0.70272702438E+00  0.70309754023E+00  0.10000000000E-01 0.  1.
      611    1    3    3    0    0  0.99857754623E-02 -0.50314550138E-02  0.11168092476E+02  0.11168102551E+02  0.10000000000E-01 0. -1.
</event>
<event>
 7   0  0.6206631E-02  0.9118800E+02  0.7818608E-02  0.1180000E+00
       11   -1    0    0    0    0  0.00000000000E+00  0.00000000000E+00  0.11999999989E+02  0.12000000000E+02  0.51109989000E-03 0.  1.
     -623   -1    0    0    0    0  0.00000000000E+00  0.00000000000E+00  0.42561509872E-11  0.25126700000E+02  0.25126700000E+02 0. -1.
      622    2    1    2    0    0 -0.22211431335E-01  0.50093204129E-01  0.65954899416E+01  0.65965214346E+01  0.10297956372E+00 0.  0.
       11    1    1    2    0    0  0.23467226743E-01 -0.49229056004E-01  0.54032032414E+01  0.54034784852E+01  0.51109989000E-03 0.  1.
     -623    1    1    2    0    0 -0.12557954085E-02 -0.86414812516E-03  0.13068061170E-02  0.25126700080E+02  0.25126700000E+02 0. -1.
     -611    1    3    3    0    0  0.72962233069E-02  0.45620442589E-01  0.60101143239E+01  0.60103002127E+01  0.10000000000E-01 0.  1.
      611    1    3    3    0    0 -0.29507654641E-01  0.44727615405E-02  0.58537561768E+00  0.58622122194E+00  0.10000000000E-01 0. -1.
</event>
<event>
 7   0  0.6206631E-02  0.9118800E+02  0.7818608E-02  0.1180000E+00
       11   -1    0    0    0    0  0.00000000000E+00  0.00000000000E+00  0.11999999989E+02  0.12000000000E+02  0.51109989000E-03 0.  1.
     -623   -1    0    0    0    0  0.00000000000E+00  0.00000000000E+00  0.42561509872E-11  0.25126700000E+02  0.25126700000E+02 0. -1.
      622    2    1    2    0    0  0.11087518103E-02 -0.14267195031E-02  0.11996106776E+02  0.11996515230E+02  0.98977910858E-01 0.  0.
       11    1    1    2    0    0 -0.17468768195E-02 -0.11073945853E-02  0.27574206522E-02  0.34846080342E-02  0.51109989000E-03 0.  1.
     -623    1    1    2    0    0  0.63812500918E-03  0.25341140884E-02  0.11357924487E-02  0.25126700162E+02  0.25126700000E+02 0. -1.
     -611    1    3    3    0    0 -0.35106906442E-01  0.31985127326E-01  0.55290626436E+01  0.55292756542E+01  0.10000000000E-01 0. -1.
      611    1    3    3    0    0  0.36215658252E-01 -0.33411846829E-01  0.64670441324E+01  0.64672395762E+01  0.10000000000E-01 0.  1.
</event>
<event>
 7   0  0.6206631E-02  0.9118800E+02  0.7818608E-02  0.1180000E+00
       11   -1    0    0    0    0  0.00000000000E+00  0.00000000000E+00  0.11999999989E+02  0.12000000000E+02  0.51109989000E-03 0. -1.
     -623   -1    0    0    0    0  0.00000000000E+00  0.00000000000E+00  0.42561509872E-11  0.25126700000E+02  0.25126700000E+02 0. -1.
      622    2    1    2    0    0 -0.37287071633E-01 -0.19611017504E+00  0.83762407378E+01  0.83806362099E+01  0.18386097598E+00 0.  0.
       11    1    1    2    0    0 -0.62063423578E-02  0.19106490322E+00  0.36142717872E+01  0.36193238497E+01  0.51109989000E-03 0. -1.
     -623    1    1    2    0    0  0.43493413991E-01  0.50452718154E-02  0.94874641222E-02  0.25126739940E+02  0.25126700000E+02 0. -1.
     -611    1    3    3    0    0 -0.10227976910E+00 -0.58219431560E-01  0.33989212160E+01  0.34009728147E+01  0.10000000000E-01 0.  1.
      611    1    3    3    0    0  0.64992697470E-01 -0.13789074348E+00  0.49773195218E+01  0.49796633952E+01  0.10000000000E-01 0. -1.
</event>
<event>
 7   0  0.6206631E-02  0.9118800E+02  0.7818608E-02  0.1180000E+00
       11   -1    0    0    0    0  0.00000000000E+00  0.00000000000E+00  0.11999999989E+02  0.12000000000E+02  0.51109989000E-03 0.  1.
     -623   -1    0    0    0    0  0.00000000000E+00  0.00000000000E+00  0.42561509872E-11  0.25126700000E+02  0.25126700000E+02 0. -1.
      622    2    1    2    0    0 -0.32362070920E-02 -0.25167382908E-02  0.11986250565E+02  0.11986809018E+02  0.11563307030E+00 0.  0.
       11    1    1    2    0    0 -0.89553867489E-03 -0.59768249112E-02  0.11711846783E-01  0.13189124449E-01  0.51109989000E-03 0.  1.
     -623    1    1    2    0    0  0.41317457669E-02  0.84935632020E-02  0.20375770980E-02  0.25126701858E+02  0.25126700000E+02 0. -1.
     -611    1    3    3    0    0 -0.21588005847E-01 -0.29956165147E-01  0.14574643233E+01  0.14579662779E+01  0.10000000000E-01 0.  1.
      611    1    3    3    0    0  0.18351798755E-01  0.27439426856E-01  0.10528786242E+02  0.10528842740E+02  0.10000000000E-01 0.  1.
</event>
<event>
 7   0  0.6206631E-02  0.9118800E+02  0.7818608E-02  0.1180000E+00
       11   -1    0    0    0    0  0.00000000000E+00  0.00000000000E+00  0.11999999989E+02  0.12000000000E+02  0.51109989000E-03 0.  1.
     -623   -1    0    0    0    0  0.00000000000E+00  0.00000000000E+00  0.42561509872E-11  0.25126700000E+02  0.25126700000E+02 0.  1.
      622    2    1    2    0    0  0.61843514203E-02 -0.93533137241E-03  0.11813370137E+02  0.11813870695E+02  0.10857114942E+00 0.  0.
       11    1    1    2    0    0 -0.40927427434E-02  0.63443394659E-03  0.18608242413E+00  0.18612921007E+00  0.51109989000E-03 0.  1.
     -623    1    1    2    0    0 -0.20916086768E-02  0.30089742582E-03  0.54742835501E-03  0.25126700095E+02  0.25126700000E+02 0.  1.
     -611    1    3    3    0    0  0.39812204252E-02 -0.47943257517E-01  0.86005852647E+01  0.86007256264E+01  0.10000000000E-01 0.  1.
      611    1    3    3    0    0  0.22031309951E-02  0.47007926145E-01  0.32127848720E+01  0.32131450687E+01  0.10000000000E-01 0. -1.
</event>
<event>
 7   0  0.6206631E-02  0.9118800E+02  0.7818608E-02  0.1180000E+00
       11   -1    0    0    0    0  0.00000000000E+00  0.00000000000E+00  0.11999999989E+02  0.12000000000E+02  0.51109989000E-03 0.  1.
     -623   -1    0    0    0    0  0.00000000000E+00  0.00000000000E+00  0.42561509872E-11  0.25126700000E+02  0.25126700000E+02 0. -1.
      622    2    1    2    0    0 -0.13422828038E-01  0.15667146633E-02  0.99572899081E+01  0.99574361674E+01  0.52250233365E-01 0.  0.
       11    1    1    2    0    0  0.42450263152E-03 -0.33473014485E-02  0.20425575562E+01  0.20425604070E+01  0.51109989000E-03 0.  1.
     -623    1    1    2    0    0  0.12998325406E-01  0.17805867852E-02  0.15252485739E-03  0.25126703426E+02  0.25126700000E+02 0. -1.
     -611    1    3    3    0    0 -0.14771937781E-01  0.12469488907E-01  0.90382197930E+01  0.90382459983E+01  0.10000000000E-01 0.  1.
      611    1    3    3    0    0  0.13491097438E-02 -0.10902774243E-01  0.91907011511E+00  0.91919016915E+00  0.10000000000E-01 0.  1.
</event>
<event>
 7   0  0.6206631E-02  0.9118800E+02  0.7818608E-02  0.1180000E+00
       11   -1    0    0    0    0  0.00000000000E+00  0.00000000000E+00  0.11999999989E+02  0.12000000000E+02  0.51109989000E-03 0. -1.
     -623   -1    0    0    0    0  0.00000000000E+00  0.00000000000E+00  0.42561509872E-11  0.25126700000E+02  0.25126700000E+02 0. -1.
      622    2    1    2    0    0  0.49053232905E-01 -0.29346814260E-01  0.10250843521E+02  0.10251450680E+02  0.95815971759E-01 0.  0.
       11    1    1    2    0    0 -0.49066570822E-02  0.15901291710E-04  0.17484864508E+01  0.17484934101E+01  0.51109989000E-03 0. -1.
     -623    1    1    2    0    0 -0.44146575823E-01  0.29330912968E-01  0.67001765571E-03  0.25126755910E+02  0.25126700000E+02 0. -1.
     -611    1    3    3    0    0 -0.22899046283E-01 -0.44080274307E-02  0.47883423496E+01  0.47884095746E+01  0.10000000000E-01 0. -1.
      611    1    3    3    0    0  0.71952279188E-01 -0.24938786829E-01  0.54625011711E+01  0.54630411052E+01  0.10000000000E-01 0.  1.
</event>
<event>
 7   0  0.6206631E-02  0.9118800E+02  0.7818608E-02  0.1180000E+00
       11   -1    0    0    0    0  0.00000000000E+00  0.00000000000E+00  0.11999999989E+02  0.12000000000E+02  0.51109989000E-03 0.  1.
     -623   -1    0    0    0    0  0.00000000000E+00  0.00000000000E+00  0.42561509872E-11  0.25126700000E+02  0.25126700000E+02 0.  1.
      622    2    1    2    0    0  0.22819411075E-03 -0.11677575503E-01  0.11696342619E+02  0.11696661072E+02  0.85516926254E-01 0.  0.
       11    1    1    2    0    0  0.10499615993E-04 -0.67116540773E-02  0.30325750218E+00  0.30333219457E+00  0.51109989000E-03 0.  1.
     -623    1    1    2    0    0 -0.23869372675E-03  0.18389229580E-01  0.39986758173E-03  0.25126706733E+02  0.25126700000E+02 0.  1.
     -611    1    3    3    0    0 -0.11659444235E-01 -0.33779809780E-01  0.10244034946E+02  0.10244102157E+02  0.10000000000E-01 0.  1.
      611    1    3    3    0    0  0.11887638346E-01  0.22102234277E-01  0.14523076729E+01  0.14525589150E+01  0.10000000000E-01 0. -1.
</event>
<event>
 7   0  0.6206631E-02  0.9118800E+02  0.7818608E-02  0.1180000E+00
       11   -1    0    0    0    0  0.00000000000E+00  0.00000000000E+00  0.11999999989E+02  0.12000000000E+02  0.51109989000E-03 0. -1.
     -623   -1    0    0    0    0  0.00000000000E+00  0.00000000000E+00  0.42561509872E-11  0.25126700000E+02  0.25126700000E+02 0.  1.
      622    2    1    2    0    0 -0.40274117756E+00  0.24495513552E-01  0.72374456753E+01  0.72495898734E+01  0.11459905230E+00 0.  0.
       11    1    1    2    0    0  0.41728209440E+00 -0.35176991041E-01  0.47318912754E+01  0.47503849392E+01  0.51109989000E-03 0. -1.
     -623    1    1    2    0    0 -0.14540916838E-01  0.10681477489E-01  0.30663038390E-01  0.25126725187E+02  0.25126700000E+02 0.  1.
     -611    1    3    3    0    0 -0.34983662515E+00  0.28443438583E-01  0.67576685923E+01  0.67667850193E+01  0.10000000000E-01 0. -1.
      611    1    3    3    0    0 -0.52904552404E-01 -0.39479250313E-02  0.47977708303E+00  0.48280485414E+00  0.10000000000E-01 0.  1.
</event>
<event>
 7   0  0.6206631E-02  0.9118800E+02  0.7818608E-02  0.1180000E+00
       11   -1    0    0    0    0  0.00000000000E+00  0.00000000000E+00  0.11999999989E+02  0.12000000000E+02  0.51109989000E-03 0. -1.
     -623   -1    0    0    0    0  0.00000000000E+00  0.00000000000E+00  0.42561509872E-11  0.25126700000E+02  0.25126700000E+02 0.  1.
      622    2    1    2    0    0 -0.14290872707E-02  0.24742557531E-03  0.11984624472E+02  0.11984803967E+02  0.65576558869E-01 0.  0.
       11    1    1    2    0    0  0.40239869046E-03 -0.27691410796E-03  0.15179556272E-01  0.15196011249E-01  0.51109989000E-03 0. -1.
     -623    1    1    2    0    0  0.10266885803E-02  0.29488532645E-04  0.19596068764E-03  0.25126700022E+02  0.25126700000E+02 0.  1.
     -611    1    3    3    0    0  0.22266602759E-02 -0.11238702002E-01  0.68559605593E+00  0.68576469604E+00  0.10000000000E-01 0.  1.
      611    1    3    3    0    0 -0.36557475467E-02  0.11486127577E-01  0.11299028416E+02  0.11299039271E+02  0.10000000000E-01 0. -1.
</event>
<event>
 7   0  0.6206631E-02  0.9118800E+02  0.7818608E-02  0.1180000E+00
       11   -1    0    0    0    0  0.00000000000E+00  0.00000000000E+00  0.11999999989E+02  0.12000000000E+02  0.51109989000E-03 0.  1.
     -623   -1    0    0    0    0  0.00000000000E+00  0.00000000000E+00  0.42561509872E-11  0.25126700000E+02  0.25126700000E+02 0. -1.
      622    2    1    2    0    0 -0.37319669318E-01 -0.18775953889E-02  0.11305239982E+02  0.11305799922E+02  0.10613460862E+00 0.  0.
       11    1    1    2    0    0  0.32932573866E-01  0.63515191967E-02  0.69338838600E+00  0.69419925906E+00  0.51109989000E-03 0.  1.
     -623    1    1    2    0    0  0.43870954523E-02 -0.44739238078E-02  0.13716214650E-02  0.25126700819E+02  0.25126700000E+02 0. -1.
     -611    1    3    3    0    0 -0.10798789889E-01 -0.26605210804E-01  0.93982158212E+00  0.94031327616E+00  0.10000000000E-01 0.  1.
      611    1    3    3    0    0 -0.26520879429E-01  0.24727615415E-01  0.10365418400E+02  0.10365486646E+02  0.10000000000E-01 0.  1.
</event>
<event>
 7   0  0.6206631E-02  0.9118800E+02  0.7818608E-02  0.1180000E+00
       11   -1    0    0    0    0  0.00000000000E+00  0.00000000000E+00  0.11999999989E+02  0.12000000000E+02  0.51109989000E-03 0.  1.
     -623   -1    0    0    0    0  0.00000000000E+00  0.00000000000E+00  0.42561509872E-11  0.25126700000E+02  0.25126700000E+02 0. -1.
      622    2    1    2    0    0 -0.24573577967E-01 -0.10010348953E-01  0.52038336004E+01  0.52046813061E+01  0.90107102174E-01 0.  0.
       11    1    1    2    0    0  0.26900431674E-01  0.13078862190E-01  0.67952525313E+01  0.67953183821E+01  0.51109989000E-03 0.  1.
     -623    1    1    2    0    0 -0.23268537070E-02 -0.30685132365E-02  0.91385745113E-03  0.25126700312E+02  0.25126700000E+02 0. -1.
     -611    1    3    3    0    0  0.53152801664E-02 -0.45234037817E-01  0.26571770470E+01  0.26575861660E+01  0.10000000000E-01 0.  1.
      611    1    3    3    0    0 -0.29888858133E-01  0.35223688864E-01  0.25466565534E+01  0.25470951402E+01  0.10000000000E-01 0. -1.
</event>
<event>
 7   0  0.6206631E-02  0.9118800E+02  0.7818608E-02  0.1180000E+00
       11   -1    0    0    0    0  0.00000000000E+00  0.00000000000E+00  0.11999999989E+02  0.12000000000E+02  0.51109989000E-03 0. -1.
     -623   -1    0    0    0    0  0.00000000000E+00  0.00000000000E+00  0.42561509872E-11  0.25126700000E+02  0.25126700000E+02 0. -1.
      622    2    1    2    0    0  0.66619323783E-02 -0.39500951814E-02  0.11453973688E+02  0.11454499306E+02  0.10945831841E+00 0.  0.
       11    1    1    2    0    0 -0.60885192448E-02  0.33607211705E-02  0.54545610196E+00  0.54550067360E+00  0.51109989000E-03 0. -1.
     -623    1    1    2    0    0 -0.57341313356E-03  0.58937401082E-03  0.57019878893E-03  0.25126700020E+02  0.25126700000E+02 0. -1.
     -611    1    3    3    0    0  0.42522889904E-02  0.43899847791E-01  0.84990120651E+01  0.84991323888E+01  0.10000000000E-01 0.  1.
      611    1    3    3    0    0  0.24096433879E-02 -0.47849942972E-01  0.29549616232E+01  0.29553669177E+01  0.10000000000E-01 0. -1.
</event>
<event>
 7   0  0.6206631E-02  0.9118800E+02  0.7818608E-02  0.1180000E+00
       11   -1    0    0    0    0  0.00000000000E+00  0.00000000000E+00  0.11999999989E+02  0.12000000000E+02  0.51109989000E-03 0.  1.
     -623   -1    0    0    0    0  0.00000000000E+00  0.00000000000E+00  0.42561509872E-11  0.25126700000E+02  0.25126700000E+02 0. -1.
      622    2    1    2    0    0 -0.62247935904E-02  0.51293064393E-02  0.11051108725E+02  0.11051626343E+02  0.10665694058E+00 0.  0.
       11    1    1    2    0    0  0.34867133232E-02 -0.83269282089E-02  0.94833019414E+00  0.94837329846E+00  0.51109989000E-03 0.  1.
     -623    1    1    2    0    0  0.27380802672E-02  0.31976217696E-02  0.56106978579E-03  0.25126700359E+02  0.25126700000E+02 0. -1.
     -611    1    3    3    0    0  0.10993158555E-01 -0.46291635971E-01  0.65380271005E+01  0.65382078685E+01  0.10000000000E-01 0.  1.
      611    1    3    3    0    0 -0.17217952146E-01  0.51420942410E-01  0.45130816247E+01  0.45134184741E+01  0.10000000000E-01 0. -1.
</event>
<event>
 7   0  0.6206631E-02  0.9118800E+02  0.7818608E-02  0.1180000E+00
       11   -1    0    0    0    0  0.00000000000E+00  0.00000000000E+00  0.11999999989E+02  0.12000000000E+02  0.51109989000E-03 0.  1.
     -623   -1    0    0    0    0  0.00000000000E+00  0.00000000000E+00  0.42561509872E-11  0.25126700000E+02  0.25126700000E+02 0.  1.
      622    2    1    2    0    0 -0.66795623132E-02 -0.91014860685E-02  0.11952791912E+02  0.11953014538E+02  0.72073581234E-01 0.  0.
       11    1    1    2    0    0  0.66422017952E-02  0.74385825314E-02  0.45912010953E-01  0.46985373550E-01  0.51109989000E-03 0. -1.
     -623    1    1    2    0    0  0.37360518025E-04  0.16629035371E-02  0.12960662242E-02  0.25126700088E+02  0.25126700000E+02 0.  1.
     -611    1    3    3    0    0  0.24571766779E-01 -0.24924171532E-01  0.63224498188E+01  0.63225546021E+01  0.10000000000E-01 0. -1.
      611    1    3    3    0    0 -0.31251329092E-01  0.15822685463E-01  0.56303420931E+01  0.56304599358E+01  0.10000000000E-01 0.  1.
</event>
<event>
 7   0  0.6206631E-02  0.9118800E+02  0.7818608E-02  0.1180000E+00
       11   -1    0    0    0    0  0.00000000000E+00  0.00000000000E+00  0.11999999989E+02  0.12000000000E+02  0.51109989000E-03 0. -1.
     -623   -1    0    0    0    0  0.00000000000E+00  0.00000000000E+00  0.42561509872E-11  0.25126700000E+02  0.25126700000E+02 0.  1.
      622    2    1    2    0    0 -0.95977664676E-01  0.62456468578E-01  0.82658789949E+01  0.82671552572E+01  0.89375421026E-01 0.  0.
       11    1    1    2    0    0  0.99416300183E-01 -0.48868019569E-01  0.37311965199E+01  0.37328406630E+01  0.51109989000E-03 0. -1.
     -623    1    1    2    0    0 -0.34386355066E-02 -0.13588449010E-01  0.29244743157E-02  0.25126704080E+02  0.25126700000E+02 0.  1.
     -611    1    3    3    0    0 -0.42472567680E-01  0.36320926048E-02  0.53380353708E+01  0.53382149386E+01  0.10000000000E-01 0. -1.
      611    1    3    3    0    0 -0.53505096996E-01  0.58824375974E-01  0.29278436241E+01  0.29289403186E+01  0.10000000000E-01 0.  1.
</event>
<event>
 7   0  0.6206631E-02  0.9118800E+02  0.7818608E-02  0.1180000E+00
       11   -1    0    0    0    0  0.00000000000E+00  0.00000000000E+00  0.11999999989E+02  0.12000000000E+02  0.51109989000E-03 0. -1.
     -623   -1    0    0    0    0  0.00000000000E+00  0.00000000000E+00  0.42561509872E-11  0.25126700000E+02  0.25126700000E+02 0. -1.
      622    2    1    2    0    0  0.29381434266E-01 -0.12476371086E-01  0.11580071811E+02  0.11580709489E+02  0.11726113765E+00 0.  0.
       11    1    1    2    0    0 -0.28778656742E-01  0.13312355232E-01  0.41808942542E+00  0.41929042293E+00  0.51109989000E-03 0. -1.
     -623    1    1    2    0    0 -0.60277752444E-03 -0.83598414675E-03  0.18387522738E-02  0.25126700088E+02  0.25126700000E+02 0. -1.
     -611    1    3    3    0    0  0.18126492797E-02  0.38569200964E-01  0.17218532606E+01  0.17223151628E+01  0.10000000000E-01 0.  1.
      611    1    3    3    0    0  0.27568784987E-01 -0.51045572050E-01  0.98582185508E+01  0.98583943259E+01  0.10000000000E-01 0. -1.
</event>
<event>
 7   0  0.6206631E-02  0.9118800E+02  0.7818608E-02  0.1180000E+00
       11   -1    0    0    0    0  0.00000000000E+00  0.00000000000E+00  0.11999999989E+02  0.12000000000E+02  0.51109989000E-03 0. -1.
     -623   -1    0    0    0    0  0.00000000000E+00  0.00000000000E+00  0.42561509872E-11  0.25126700000E+02  0.25126700000E+02 0. -1.
      622    2    1    2    0    0  0.17717468808E-01  0.13151996636E-01  0.11950650278E+02  0.11951099290E+02  0.10121895967E+00 0.  0.
       11    1    1    2    0    0 -0.10228759269E-01 -0.27904387842E-01  0.38819935849E-01  0.48893056966E-01  0.51109989000E-03 0. -1.
     -623    1    1    2    0    0 -0.74887095393E-02  0.14752391205E-01  0.10529774795E-01  0.25126707653E+02  0.25126700000E+02 0. -1.
     -611    1    3    3    0    0  0.49715403299E-01 -0.19746110266E-01  0.51723444666E+01  0.51726307438E+01  0.10000000000E-01 0.  1.
      611    1    3    3    0    0 -0.31997934491E-01  0.32898106902E-01  0.67783058118E+01  0.67784685462E+01  0.10000000000E-01 0. -1.
</event>
<event>
 7   0  0.6206631E-02  0.9118800E+02  0.7818608E-02  0.1180000E+00
       11   -1    0    0    0    0  0.00000000000E+00  0.00000000000E+00  0.11999999989E+02  0.12000000000E+02  0.51109989000E-03 0. -1.
     -623   -1    0    0    0    0  0.00000000000E+00  0.00000000000E+00  0.42561509872E-11  0.25126700000E+02  0.25126700000E+02 0. -1.
      622    2    1    2    0    0  0.18985080464E-01 -0.13893438517E-01  0.10180327860E+02  0.10180801578E+02  0.95351793901E-01 0.  0.
       11    1    1    2    0    0  0.35320180643E-01 -0.11116475418E-01  0.18187503098E+01  0.18191272747E+01  0.51109989000E-03 0. -1.
     -623    1    1    2    0    0 -0.54305261107E-01  0.25009913936E-01  0.92181915763E-03  0.25126771147E+02  0.25126700000E+02 0. -1.
     -611    1    3    3    0    0  0.41426198729E-01  0.18859833788E-01  0.30485052148E+01  0.30488614052E+01  0.10000000000E-01 0. -1.
      611    1    3    3    0    0 -0.22441118265E-01 -0.32753272305E-01  0.71318226454E+01  0.71319401726E+01  0.10000000000E-01 0.  1.
</event>
<event>
 7   0  0.6206631E-02  0.9118800E+02  0.7818608E-02  0.1180000E+00
       11   -1    0    0    0    0  0.00000000000E+00  0.00000000000E+00  0.11999999989E+02  0.12000000000E+02  0.51109989000E-03 0. -1.
     -623   -1    0    0    0    0  0.00000000000E+00  0.00000000000E+00  0.42561509872E-11  0.25126700000E+02  0.25126700000E+02 0.  1.
      622    2    1    2    0    0 -0.32854795507E-01 -0.10885028158E-02  0.67027153357E+01  0.67041827195E+01  0.13635410859E+00 0.  0.
       11    1    1    2    0    0  0.41510568533E-01  0.22522722872E-01  0.52955959800E+01  0.52958065906E+01  0.51109989000E-03 0. -1.
     -623    1    1    2    0    0 -0.86557730257E-02 -0.21434220056E-01  0.16886733557E-02  0.25126710690E+02  0.25126700000E+02 0.  1.
     -611    1    3    3    0    0 -0.59357920620E-01 -0.48456144393E-01  0.49378324396E+01  0.49384370566E+01  0.10000000000E-01 0. -1.
      611    1    3    3    0    0  0.26503125113E-01  0.47367641578E-01  0.17648828961E+01  0.17657456629E+01  0.10000000000E-01 0. -1.
</event>
<event>
 7   0  0.6206631E-02  0.9118800E+02  0.7818608E-02  0.1180000E+00
       11   -1    0    0    0    0  0.00000000000E+00  0.00000000000E+00  0.11999999989E+02  0.12000000000E+02  0.51109989000E-03 0.  1.
     -623   -1    0    0    0    0  0.00000000000E+00  0.00000000000E+00  0.42561509872E-11  0.25126700000E+02  0.25126700000E+02 0. -1.
      622    2    1    2    0    0  0.22963001350E-02 -0.61042499395E-02  0.11664316606E+02  0.11664386005E+02  0.39704823535E-01 0.  0.
       11    1    1    2    0    0 -0.14367894545E-01  0.77624602138E-02  0.33521308717E+00  0.33561103560E+00  0.51109989000E-03 0.  1.
     -623    1    1    2    0    0  0.12071594410E-01 -0.16582102742E-02  0.47029626189E-03  0.25126702959E+02  0.25126700000E+02 0. -1.
     -611    1    3    3    0    0  0.77422431338E-02 -0.17706721141E-01  0.84786454297E+01  0.84786733509E+01  0.10000000000E-01 0.  1.
      611    1    3    3    0    0 -0.54459429988E-02  0.11602471202E-01  0.31856711759E+01  0.31857126544E+01  0.10000000000E-01 0. -1.
</event>
<event>
 7   0  0.6206631E-02  0.9118800E+02  0.7818608E-02  0.1180000E+00
       11   -1    0    0    0    0  0.00000000000E+00  0.00000000000E+00  0.11999999989E+02  0.12000000000E+02  0.51109989000E-03 0. -1.
     -623   -1    0    0    0    0  0.00000000000E+00  0.00000000000E+00  0.42561509872E-11  0.25126700000E+02  0.25126700000E+02 0. -1.
      622    2    1    2    0    0  0.39620461426E-01  0.14686522418E-01  0.11744188256E+02  0.11745039317E+02  0.13492698533E+00 0.  0.
       11    1    1    2    0    0 -0.36294257501E-01 -0.11573064246E-01  0.25209745977E+00  0.25495999567E+00  0.51109989000E-03 0. -1.
     -623    1    1    2    0    0 -0.33262039246E-02 -0.31134581720E-02  0.37142736242E-02  0.25126700688E+02  0.25126700000E+02 0. -1.
     -611    1    3    3    0    0  0.16060432598E-01 -0.36613083092E-01  0.95893458242E+01  0.95894343832E+01  0.10000000000E-01 0. -1.
      611    1    3    3    0    0  0.23560028828E-01  0.51299605510E-01  0.21548424316E+01  0.21556049335E+01  0.10000000000E-01 0.  1.
</event>
<event>
 7   0  0.6206631E-02  0.9118800E+02  0.7818608E-02  0.1180000E+00
       11   -1    0    0    0    0  0.00000000000E+00  0.00000000000E+00  0.11999999989E+02  0.12000000000E+02  0.51109989000E-03 0.  1.
     -623   -1    0    0    0    0  0.00000000000E+00  0.00000000000E+00  0.42561509872E-11  0.25126700000E+02  0.25126700000E+02 0. -1.
      622    2    1    2    0    0  0.42580518437E-01  0.31628675642E-01  0.86127594417E+01  0.86134762450E+01  0.97643987004E-01 0.  0.
       11    1    1    2    0    0 -0.41891691199E-01 -0.29355714458E-01  0.33861372220E+01  0.33865236185E+01  0.51109989000E-03 0.  1.
     -623    1    1    2    0    0 -0.68882723796E-03 -0.22729611840E-02  0.11033254300E-02  0.25126700136E+02  0.25126700000E+02 0. -1.
     -611    1    3    3    0    0  0.24355517846E-01  0.55948312897E-01  0.30602216910E+01  0.30608463213E+01  0.10000000000E-01 0. -1.
      611    1    3    3    0    0  0.18225000590E-01 -0.24319637255E-01  0.55525377508E+01  0.55526299237E+01  0.10000000000E-01 0.  1.
</event>
<event>
 7   0  0.6206631E-02  0.9118800E+02  0.7818608E-02  0.1180000E+00
       11   -1    0    0    0    0  0.00000000000E+00  0.00000000000E+00  0.11999999989E+02  0.12000000000E+02  0.51109989000E-03 0.  1.
     -623   -1    0    0    0    0  0.00000000000E+00  0.00000000000E+00  0.42561509872E-11  0.25126700000E+02  0.25126700000E+02 0.  1.
      622    2    1    2    0    0 -0.22929865693E-01  0.22511889451E-01  0.11664583820E+02  0.11665886594E+02  0.17135275520E+00 0.  0.
       11    1    1    2    0    0  0.21199597350E-01 -0.32363828624E-01  0.33186317695E+00  0.33411116379E+00  0.51109989000E-03 0.  1.
     -623    1    1    2    0    0  0.17302683431E-02  0.98519391734E-02  0.35529921780E-02  0.25126702242E+02  0.25126700000E+02 0.  1.
     -611    1    3    3    0    0  0.39240078737E-01 -0.33615593084E-01  0.14504846552E+01  0.14514391227E+01  0.10000000000E-01 0. -1.
      611    1    3    3    0    0 -0.62169944429E-01  0.56127482535E-01  0.10214099165E+02  0.10214447471E+02  0.10000000000E-01 0.  1.
</event>
<event>
 7   0  0.6206631E-02  0.9118800E+02  0.7818608E-02  0.1180000E+00
       11   -1    0    0    0    0  0.00000000000E+00  0.00000000000E+00  0.11999999989E+02  0.12000000000E+02  0.51109989000E-03 0. -1.
     -623   -1    0    0    0    0  0.00000000000E+00  0.00000000000E+00  0.42561509872E-11  0.25126700000E+02  0.25126700000E+02 0.  1.
      622    2    1    2    0    0  0.22237232448E-01  0.47468317801E-01  0.90590942553E+01  0.90599286058E+01  0.11121996825E+00 0.  0.
       11    1    1    2    0    0 -0.22389724944E-01 -0.45118482591E-01  0.29396397276E+01  0.29400712519E+01  0.51109989000E-03 0. -1.
     -623    1    1    2    0    0  0.15249249617E-03 -0.23498352105E-02  0.12660062767E-02  0.25126700142E+02  0.25126700000E+02 0.  1.
     -611    1    3    3    0    0  0.55848632230E-01  0.61449849424E-01  0.68667707583E+01  0.68672800875E+01  0.10000000000E-01 0.  1.
      611    1    3    3    0    0 -0.33611399782E-01 -0.13981531622E-01  0.21923234970E+01  0.21926485183E+01  0.10000000000E-01 0. -1.
</event>
<event>
 7   0  0.6206631E-02  0.9118800E+02  0.7818608E-02  0.1180000E+00
       11   -1    0    0    0    0  0.00000000000E+00  0.00000000000E+00  0.11999999989E+02  0.12000000000E+02  0.51109989000E-03 0. -1.
     -623   -1    0    0    0    0  0.00000000000E+00  0.00000000000E+00  0.42561509872E-11  0.25126700000E+02  0.25126700000E+02 0. -1.
      622    2    1    2    0    0  0.44350041042E-02  0.74101603450E-02  0.11858839198E+02  0.11859430269E+02  0.11808723511E+00 0.  0.
       11    1    1    2    0    0 -0.46200631118E-01 -0.23780035862E-01  0.13056690139E+00  0.14052745419E+00  0.51109989000E-03 0. -1.
     -623    1    1    2    0    0  0.41765627013E-01  0.16369875517E-01  0.10593889778E-01  0.25126742277E+02  0.25126700000E+02 0. -1.
     -611    1    3    3    0    0  0.42216083463E-01  0.19292033596E-01  0.22345291981E+01  0.22350335831E+01  0.10000000000E-01 0.  1.
      611    1    3    3    0    0 -0.37781079359E-01 -0.11881873251E-01  0.96243099999E+01  0.96243966856E+01  0.10000000000E-01 0. -1.
</event>
<event>
 7   0  0.6206631E-02  0.9118800E+02  0.7818608E-02  0.1180000E+00
       11   -1    0    0    0    0  0.00000000000E+00  0.00000000000E+00  0.11999999989E+02  0.12000000000E+02  0.51109989000E-03 0. -1.
     -623   -1    0    0    0    0  0.00000000000E+00  0.00000000000E+00  0.42561509872E-11  0.25126700000E+02  0.25126700000E+02 0.  1.
      622    2    1    2    0    0 -0.21295563922E-01  0.86358823531E-02  0.10988488581E+02  0.10988976343E+02  0.10095399239E+00 0.  0.
       11    1    1    2    0    0  0.21901503478E-01 -0.93432009111E-02  0.10107430649E+01  0.10110236277E+01  0.51109989000E-03 0. -1.
     -623    1    1    2    0    0 -0.60593955649E-03  0.70731855795E-03  0.76834362855E-03  0.25126700029E+02  0.25126700000E+02 0.  1.
     -611    1    3    3    0    0  0.29977151184E-01  0.29590089085E-01  0.63242266629E+01  0.63243748377E+01  0.10000000000E-01 0.  1.
      611    1    3    3    0    0 -0.51272715106E-01 -0.20954206732E-01  0.46642619176E+01  0.46646015056E+01  0.10000000000E-01 0. -1.
</event>
<event>
 7   0  0.6206631E-02  0.9118800E+02  0.7818608E-02  0.1180000E+00
       11   -1    0    0    0    0  0.00000000000E+00  0.00000000000E+00  0.11999999989E+02  0.12000000000E+02  0.51109989000E-03 0.  1.
     -623   -1    0    0    0    0  0.00000000000E+00  0.00000000000E+00  0.42561509872E-11  0.25126700000E+02  0.25126700000E+02 0.  1.
      622    2    1    2    0    0 -0.29718381851E-02 -0.11156342914E-01  0.11552813754E+02  0.11553397262E+02  0.11553941066E+00 0.  0.
       11    1    1    2    0    0  0.21453476679E-02  0.14276723573E-01  0.44636881649E+00  0.44660251780E+00  0.51109989000E-03 0.  1.
     -623    1    1    2    0    0  0.82649051717E-03 -0.31203806586E-02  0.81741874269E-03  0.25126700221E+02  0.25126700000E+02 0.  1.
     -611    1    3    3    0    0 -0.26511316997E-01 -0.13846168870E-01  0.10938505057E+02  0.10938550518E+02  0.10000000000E-01 0.  1.
      611    1    3    3    0    0  0.23539478812E-01  0.26898259554E-02  0.61430869709E+00  0.61484674313E+00  0.10000000000E-01 0. -1.
</event>
<event>
 7   0  0.6206631E-02  0.9118800E+02  0.7818608E-02  0.1180000E+00
       11   -1    0    0    0    0  0.00000000000E+00  0.00000000000E+00  0.11999999989E+02  0.12000000000E+02  0.51109989000E-03 0.  1.
     -623   -1    0    0    0    0  0.00000000000E+00  0.00000000000E+00  0.42561509872E-11  0.25126700000E+02  0.25126700000E+02 0.  1.
      622    2    1    2    0    0 -0.12002018037E-01  0.24142216824E-01  0.11833850273E+02  0.11834345763E+02  0.10488299706E+00 0.  0.
       11    1    1    2    0    0 -0.25661728801E-02 -0.29203406654E-01  0.16303376605E+00  0.16564931120E+00  0.51109989000E-03 0.  1.
     -623    1    1    2    0    0  0.14568190917E-01  0.50611898293E-02  0.31159497477E-02  0.25126704926E+02  0.25126700000E+02 0.  1.
     -611    1    3    3    0    0 -0.48240197034E-01  0.27796423856E-01  0.96732032364E+01  0.96733686279E+01  0.10000000000E-01 0.  1.
      611    1    3    3    0    0  0.36238178997E-01 -0.36542070315E-02  0.21606470369E+01  0.21609771347E+01  0.10000000000E-01 0. -1.
</event>
<event>
 7   0  0.6206631E-02  0.9118800E+02  0.7818608E-02  0.1180000E+00
       11   -1    0    0    0    0  0.00000000000E+00  0.00000000000E+00  0.11999999989E+02  0.12000000000E+02  0.51109989000E-03 0. -1.
     -623   -1    0    0    0    0  0.00000000000E+00  0.00000000000E+00  0.42561509872E-11  0.25126700000E+02  0.25126700000E+02 0. -1.
      622    2    1    2    0    0  0.44656154837E-02 -0.27046305857E-02  0.11991001230E+02  0.11991340667E+02  0.90073534430E-01 0.  0.
       11    1    1    2    0    0  0.43865055340E-03 -0.84918398707E-03  0.85904944031E-02  0.86585994816E-02  0.51109989000E-03 0. -1.
     -623    1    1    2    0    0 -0.49042660371E-02  0.35538145728E-02  0.40826461818E-03  0.25126700733E+02  0.25126700000E+02 0. -1.
     -611    1    3    3    0    0 -0.10964485113E-01 -0.42023630811E-01  0.47396356048E+01  0.47398451316E+01  0.10000000000E-01 0.  1.
      611    1    3    3    0    0  0.15430100597E-01  0.39319000225E-01  0.72513656253E+01  0.72514955357E+01  0.10000000000E-01 0. -1.
</event>
<event>
 7   0  0.6206631E-02  0.9118800E+02  0.7818608E-02  0.1180000E+00
       11   -1    0    0    0    0  0.00000000000E+00  0.00000000000E+00  0.11999999989E+02  0.12000000000E+02  0.51109989000E-03 0. -1.
     -623   -1    0    0    0    0  0.00000000000E+00  0.00000000000E+00  0.42561509872E-11  0.25126700000E+02  0.25126700000E+02 0.  1.
      622    2    1    2    0    0  0.11344826933E-01  0.61165504056E-02  0.10832756327E+02  0.10834162922E+02  0.17409904612E+00 0.  0.
       11    1    1    2    0    0  0.29892814607E-01 -0.54693849462E-02  0.11654069070E+01  0.11658031629E+01  0.51109989000E-03 0. -1.
     -623    1    1    2    0    0 -0.41237641540E-01 -0.64716545938E-03  0.18367555210E-02  0.25126733915E+02  0.25126700000E+02 0.  1.
     -611    1    3    3    0    0  0.55723044536E-01 -0.25375049989E-01  0.95635610726E+01  0.95637623005E+01  0.10000000000E-01 0. -1.
      611    1    3    3    0    0 -0.44378217603E-01  0.31491600395E-01  0.12691952540E+01  0.12704006218E+01  0.10000000000E-01 0.  1.
</event>
<event>
 7   0  0.6206631E-02  0.9118800E+02  0.7818608E-02  0.1180000E+00
       11   -1    0    0    0    0  0.00000000000E+00  0.00000000000E+00  0.11999999989E+02  0.12000000000E+02  0.51109989000E-03 0. -1.
     -623   -1    0    0    0    0  0.00000000000E+00  0.00000000000E+00  0.42561509872E-11  0.25126700000E+02  0.25126700000E+02 0.  1.
      622    2    1    2    0    0 -0.26309196756E-01 -0.14093734466E-01  0.93090568498E+01  0.93092729727E+01  0.55973559505E-01 0.  0.
       11    1    1    2    0    0  0.27616027308E-01  0.15137024858E-01  0.26905426188E+01  0.26907269685E+01  0.51109989000E-03 0. -1.
     -623    1    1    2    0    0 -0.13068305519E-02 -0.10432903923E-02  0.40052055885E-03  0.25126700059E+02  0.25126700000E+02 0.  1.
     -611    1    3    3    0    0 -0.29797000572E-01  0.11831546637E-01  0.61621458189E+01  0.61622373323E+01  0.10000000000E-01 0. -1.
      611    1    3    3    0    0  0.34878038164E-02 -0.25925281103E-01  0.31469110310E+01  0.31470356404E+01  0.10000000000E-01 0.  1.
</event>
<event>
 7   0  0.6206631E-02  0.9118800E+02  0.7818608E-02  0.1180000E+00
       11   -1    0    0    0    0  0.00000000000E+00  0.00000000000E+00  0.11999999989E+02  0.12000000000E+02  0.51109989000E-03 0.  1.
     -623   -1    0    0    0    0  0.00000000000E+00  0.00000000000E+00  0.42561509872E-11  0.25126700000E+02  0.25126700000E+02 0.  1.
      622    2    1    2    0    0  0.18169103853E-01  0.12192672623E-03  0.11962505386E+02  0.11963262582E+02  0.13336551942E+00 0.  0.
       11    1    1    2    0    0 -0.53580203262E-02 -0.13372255778E-01  0.33783639339E-01  0.36730384105E-01  0.51109989000E-03 0.  1.
     -623    1    1    2    0    0 -0.12811083527E-01  0.13250329051E-01  0.37109634465E-02  0.25126707034E+02  0.25126700000E+02 0.  1.
     -611    1    3    3    0    0 -0.22832482943E-01 -0.48005870599E-01  0.27330643380E+01  0.27335995613E+01  0.10000000000E-01 0.  1.
      611    1    3    3    0    0  0.41001586795E-01  0.48127797325E-01  0.92294410484E+01  0.92296630210E+01  0.10000000000E-01 0.  1.
</event>
<event>
 7   0  0.6206631E-02  0.9118800E+02  0.7818608E-02  0.1180000E+00
       11   -1    0    0    0    0  0.00000000000E+00  0.00000000000E+00  0.11999999989E+02  0.12000000000E+02  0.51109989000E-03 0.  1.
     -623   -1    0    0    0    0  0.00000000000E+00  0.00000000000E+00  0.42561509872E-11  0.25126700000E+02  0.25126700000E+02 0. -1.
      622    2    1    2    0    0  0.30977235026E-01  0.75231585980E-01  0.47796459657E+01  0.47804717118E+01  0.35705034497E-01 0.  0.
       11    1    1    2    0    0 -0.53248979896E-01 -0.10632324147E+00  0.72185197316E+01  0.72194991144E+01  0.51109989000E-03 0.  1.
     -623    1    1    2    0    0  0.22271744871E-01  0.31091655487E-01  0.18342918594E-02  0.25126729174E+02  0.25126700000E+02 0. -1.
     -611    1    3    3    0    0  0.33149518685E-01  0.67055278215E-01  0.39260773171E+01  0.39268025671E+01  0.10000000000E-01 0.  1.
      611    1    3    3    0    0 -0.21722836591E-02  0.81763077641E-02  0.85356864859E+00  0.85366914474E+00  0.10000000000E-01 0. -1.
</event>
<event>
 7   0  0.6206631E-02  0.9118800E+02  0.7818608E-02  0.1180000E+00
       11   -1    0    0    0    0  0.00000000000E+00  0.00000000000E+00  0.11999999989E+02  0.12000000000E+02  0.51109989000E-03 0.  1.
     -623   -1    0    0    0    0  0.00000000000E+00  0.00000000000E+00  0.42561509872E-11  0.25126700000E+02  0.25126700000E+02 0.  1.
      622    2    1    2    0    0 -0.22775981458E-01 -0.66535978241E-01  0.24108619584E+01  0.24151743490E+01  0.12596019865E+00 0.  0.
       11    1    1    2    0    0 -0.14380383409E-02  0.68418137436E-01  0.95845691828E+01  0.95848134979E+01  0.51109989000E-03 0.  1.
     -623    1    1    2    0    0  0.24214019799E-01 -0.18821591953E-02  0.45688479452E-02  0.25126712153E+02  0.25126700000E+02 0.  1.
     -611    1    3    3    0    0  0.16083824772E-02  0.13613948819E-01  0.15696707489E+01  0.15697624618E+01  0.10000000000E-01 0.  1.
      611    1    3    3    0    0 -0.24384363935E-01 -0.80149927060E-01  0.84119120948E+00  0.84541188714E+00  0.10000000000E-01 0. -1.
</event>
<event>
 7   0  0.6206631E-02  0.9118800E+02  0.7818608E-02  0.1180000E+00
       11   -1    0    0    0    0  0.00000000000E+00  0.00000000000E+00  0.11999999989E+02  0.12000000000E+02  0.51109989000E-03 0. -1.
     -623   -1    0    0    0    0  0.00000000000E+00  0.00000000000E+00  0.42561509872E-11  0.25126700000E+02  0.25126700000E+02 0.  1.
      622    2    1    2    0    0  0.35162266071E-01  0.32490236581E-01  0.11309840448E+02  0.11310306901E+02  0.90880391448E-01 0.  0.
       11    1    1    2    0    0 -0.74520362937E-01 -0.30838550146E-01  0.68492967861E+00  0.68966167542E+00  0.51109989000E-03 0. -1.
     -623    1    1    2    0    0  0.39358096866E-01 -0.16516864352E-02  0.52298628929E-02  0.25126731424E+02  0.25126700000E+02 0.  1.
     -611    1    3    3    0    0 -0.78601459810E-02  0.22920148768E-02  0.24761692881E+00  0.24795398496E+00  0.10000000000E-01 0.  1.
      611    1    3    3    0    0  0.43022412052E-01  0.30198221704E-01  0.11062223519E+02  0.11062352916E+02  0.10000000000E-01 0. -1.
</event>
<event>
 7   0  0.6206631E-02  0.9118800E+02  0.7818608E-02  0.1180000E+00
       11   -1    0    0    0    0  0.00000000000E+00  0.00000000000E+00  0.11999999989E+02  0.12000000000E+02  0.51109989000E-03 0.  1.
     -623   -1    0    0    0    0  0.00000000000E+00  0.00000000000E+00  0.42561509872E-11  0.25126700000E+02  0.25126700000E+02 0.  1.
      622    2    1    2    0    0 -0.12422611108E-01 -0.39778219618E-02  0.11871378427E+02  0.11871599592E+02  0.71281062677E-01 0.  0.
       11    1    1    2    0    0  0.10760260907E-01  0.53265919334E-02  0.12783669697E+00  0.12840030418E+00  0.51109989000E-03 0.  1.
     -623    1    1    2    0    0  0.16623502008E-02 -0.13487699716E-02  0.78486554998E-03  0.25126700103E+02  0.25126700000E+02 0.  1.
     -611    1    3    3    0    0 -0.27922153100E-01 -0.54467483937E-02  0.10917844703E+02  0.10917886346E+02  0.10000000000E-01 0.  1.
      611    1    3    3    0    0  0.15499541992E-01  0.14689264319E-02  0.95353372401E+00  0.95371324640E+00  0.10000000000E-01 0.  1.
</event>
<event>
 7   0  0.6206631E-02  0.9118800E+02  0.7818608E-02  0.1180000E+00
       11   -1    0    0    0    0  0.00000000000E+00  0.00000000000E+00  0.11999999989E+02  0.12000000000E+02  0.51109989000E-03 0.  1.
     -623   -1    0    0    0    0  0.00000000000E+00  0.00000000000E+00  0.42561509872E-11  0.25126700000E+02  0.25126700000E+02 0. -1.
      622    2    1    2    0    0 -0.91271121622E-02 -0.10759291708E-01  0.96698111071E+01  0.96702695614E+01  0.93099273744E-01 0.  0.
       11    1    1    2    0    0  0.50774004258E-02  0.80349023827E-02  0.23297105155E+01  0.23297299600E+01  0.51109989000E-03 0.  1.
     -623    1    1    2    0    0  0.40497117365E-02  0.27243893249E-02  0.47836650773E-03  0.25126700479E+02  0.25126700000E+02 0. -1.
     -611    1    3    3    0    0 -0.10119176814E-01 -0.23799666368E-01  0.93452863430E+01  0.93453274771E+01  0.10000000000E-01 0.  1.
      611    1    3    3    0    0  0.99206465183E-03  0.13040374660E-01  0.32452476412E+00  0.32494208421E+00  0.10000000000E-01 0.  1.
</event>
<event>
 7   0  0.6206631E-02  0.9118800E+02  0.7818608E-02  0.1180000E+00
       11   -1    0    0    0    0  0.00000000000E+00  0.00000000000E+00  0.11999999989E+02  0.12000000000E+02  0.51109989000E-03 0. -1.
     -623   -1    0    0    0    0  0.00000000000E+00  0.00000000000E+00  0.42561509872E-11  0.25126700000E+02  0.25126700000E+02 0.  1.
      622    2    1    2    0    0 -0.87732180443E-02  0.32187980949E-02  0.11972122143E+02  0.11972469930E+02  0.90776057483E-01 0.  0.
       11    1    1    2    0    0 -0.17784030720E-02  0.51276522185E-02  0.26981268080E-01  0.27526452462E-01  0.51109989000E-03 0. -1.
     -623    1    1    2    0    0  0.10551621116E-01 -0.83464503135E-02  0.89657844202E-03  0.25126703618E+02  0.25126700000E+02 0.  1.
     -611    1    3    3    0    0 -0.45148759709E-01 -0.15816112963E-01  0.61038722820E+01  0.61040679382E+01  0.10000000000E-01 0.  1.
      611    1    3    3    0    0  0.36375541665E-01  0.19034911058E-01  0.58682498606E+01  0.58684019915E+01  0.10000000000E-01 0. -1.
</event>
<event>
 6   0  0.6206631E-02  0.9118800E+02  0.7818608E-02  0.1180000E+00
       11   -1    0    0    0    0  0.00000000000E+00  0.00000000000E+00  0.11999999989E+02  0.12000000000E+02  0.51109989000E-03 0. -1.
     -623   -1    0    0    0    0  0.00000000000E+00  0.00000000000E+00  0.42561509872E-11  0.25126700000E+02  0.25126700000E+02 0. -1.
       11    1    1    2    0    0 -0.24792648128E-01 -0.33832892628E-01  0.10205472566E+00  0.11033933241E+00  0.51109989000E-03 0. -1.
     -623    1    1    2    0    0  0.15051464665E-01 -0.24695704826E-01  0.12109607043E-01  0.25126719562E+02  0.25126700000E+02 0. -1.
     -611    1    1    2    0    0  0.75480269783E-01 -0.72889983485E-01  0.20543484723E+01  0.20570507691E+01  0.10000000000E-01 0.  1.
      611    1    1    2    0    0 -0.65739086321E-01  0.13141858094E+00  0.98314871841E+01  0.98325903363E+01  0.10000000000E-01 0. -1.
</event>
<event>
 7   0  0.6206631E-02  0.9118800E+02  0.7818608E-02  0.1180000E+00
       11   -1    0    0    0    0  0.00000000000E+00  0.00000000000E+00  0.11999999989E+02  0.12000000000E+02  0.51109989000E-03 0.  1.
     -623   -1    0    0    0    0  0.00000000000E+00  0.00000000000E+00  0.42561509872E-11  0.25126700000E+02  0.25126700000E+02 0. -1.
      622    2    1    2    0    0  0.39373244904E-02  0.32952674473E-01  0.10010874082E+02  0.10012140120E+02  0.15571934508E+00 0.  0.
       11    1    1    2    0    0  0.21127378132E-01 -0.27326847811E-01  0.19875465067E+01  0.19878466993E+01  0.51109989000E-03 0.  1.
     -623    1    1    2    0    0 -0.25064702623E-01 -0.56258266625E-02  0.15794006138E-02  0.25126713181E+02  0.25126700000E+02 0. -1.
     -611    1    3    3    0    0 -0.12042331538E-02  0.44257430401E-02  0.49042991069E-01  0.50261837928E-01  0.10000000000E-01 0.  1.
      611    1    3    3    0    0  0.51415576442E-02  0.28526931433E-01  0.99618310908E+01  0.99618782818E+01  0.10000000000E-01 0.  1.
</event>
<event>
 7   0  0.6206631E-02  0.9118800E+02  0.7818608E-02  0.1180000E+00
       11   -1    0    0    0    0  0.00000000000E+00  0.00000000000E+00  0.11999999989E+02  0.12000000000E+02  0.51109989000E-03 0.  1.
     -623   -1    0    0    0    0  0.00000000000E+00  0.00000000000E+00  0.42561509872E-11  0.25126700000E+02  0.25126700000E+02 0. -1.
      622    2    1    2    0    0 -0.13412485291E-01 -0.41481350353E-01  0.66150117662E+01  0.66158990619E+01  0.99192407265E-01 0.  0.
       11    1    1    2    0    0  0.19064388734E-01  0.61902024114E-01  0.53837023306E+01  0.53840919715E+01  0.51109989000E-03 0.  1.
     -623    1    1    2    0    0 -0.56519034431E-02 -0.20420673761E-01  0.12858923163E-02  0.25126708967E+02  0.25126700000E+02 0. -1.
     -611    1    3    3    0    0 -0.45186777684E-01 -0.28032868983E-01  0.19544043735E+01  0.19551532272E+01  0.10000000000E-01 0. -1.
      611    1    3    3    0    0  0.31774292393E-01 -0.13448481371E-01  0.46606073927E+01  0.46607458347E+01  0.10000000000E-01 0.  1.
</event>
<event>
 7   0  0.6206631E-02  0.9118800E+02  0.7818608E-02  0.1180000E+00
       11   -1    0    0    0    0  0.00000000000E+00  0.00000000000E+00  0.11999999989E+02  0.12000000000E+02  0.51109989000E-03 0. -1.
     -623   -1    0    0    0    0  0.00000000000E+00  0.00000000000E+00  0.42561509872E-11  0.25126700000E+02  0.25126700000E+02 0. -1.
      622    2    1    2    0    0  0.11154491767E-03 -0.29411751594E-03  0.11996723080E+02  0.11997160962E+02  0.10250067691E+00 0.  0.
       11    1    1    2    0    0  0.12742218157E-03 -0.63003624881E-03  0.27176445853E-02  0.28390134349E-02  0.51109989000E-03 0. -1.
     -623    1    1    2    0    0 -0.23896709923E-03  0.92415376475E-03  0.55926423258E-03  0.25126700024E+02  0.25126700000E+02 0. -1.
     -611    1    3    3    0    0 -0.40505560622E-01  0.28501743305E-01  0.68949982957E+01  0.68951834310E+01  0.10000000000E-01 0. -1.
      611    1    3    3    0    0  0.40617105540E-01 -0.28795860821E-01  0.51017247846E+01  0.51019775312E+01  0.10000000000E-01 0.  1.
</event>
<event>
 7   0  0.6206631E-02  0.9118800E+02  0.7818608E-02  0.1180000E+00
       11   -1    0    0    0    0  0.00000000000E+00  0.00000000000E+00  0.11999999989E+02  0.12000000000E+02  0.51109989000E-03 0.  1.
     -623   -1    0    0    0    0  0.00000000000E+00  0.00000000000E+00  0.42561509872E-11  0.25126700000E+02  0.25126700000E+02 0.  1.
      622    2    1    2    0    0  0.48038422458E-01  0.12197330308E+00  0.95382236878E+01  0.95398184905E+01  0.11506752319E+00 0.  0.
       11    1    1    2    0    0 -0.15362042477E+00 -0.67902531658E-01  0.24541596301E+01  0.24599003516E+01  0.51109989000E-03 0.  1.
     -623    1    1    2    0    0  0.10558200231E+00 -0.54070771418E-01  0.76166712014E-02  0.25126981158E+02  0.25126700000E+02 0.  1.
     -611    1    3    3    0    0  0.72949481674E-01  0.94362345919E-01  0.85605560566E+01  0.85613927534E+01  0.10000000000E-01 0.  1.
      611    1    3    3    0    0 -0.24911059216E-01  0.27610957157E-01  0.97766763125E+00  0.97842573710E+00  0.10000000000E-01 0. -1.
</event>
<event>
 7   0  0.6206631E-02  0.9118800E+02  0.7818608E-02  0.1180000E+00
       11   -1    0    0    0    0  0.00000000000E+00  0.00000000000E+00  0.11999999989E+02  0.12000000000E+02  0.51109989000E-03 0.  1.
     -623   -1    0    0    0    0  0.00000000000E+00  0.00000000000E+00  0.42561509872E-11  0.25126700000E+02  0.25126700000E+02 0.  1.
      622    2    1    2    0    0 -0.15371836117E-02  0.97114788545E-03  0.11991234526E+02  0.11991699595E+02  0.10559551597E+00 0.  0.
       11    1    1    2    0    0 -0.28855912272E-03 -0.48140959941E-03  0.82655440658E-02  0.83003291128E-02  0.51109989000E-03 0.  1.
     -623    1    1    2    0    0  0.18257427344E-02 -0.48973828604E-03  0.49991923781E-03  0.25126700076E+02  0.25126700000E+02 0.  1.
     -611    1    3    3    0    0  0.12422906126E-01 -0.38414995995E-01  0.95249746078E+01  0.95250654234E+01  0.10000000000E-01 0.  1.
      611    1    3    3    0    0 -0.13960089738E-01  0.39386143881E-01  0.24662599180E+01  0.24666341715E+01  0.10000000000E-01 0. -1.
</event>
<event>
 7   0  0.6206631E-02  0.9118800E+02  0.7818608E-02  0.1180000E+00
       11   -1    0    0    0    0  0.00000000000E+00  0.00000000000E+00  0.11999999989E+02  0.12000000000E+02  0.51109989000E-03 0. -1.
     -623   -1    0    0    0    0  0.00000000000E+00  0.00000000000E+00  0.42561509872E-11  0.25126700000E+02  0.25126700000E+02 0. -1.
      622    2    1    2    0    0  0.31839592786E-02  0.24607750074E-02  0.11975613853E+02  0.11976321203E+02  0.13010078235E+00 0.  0.
       11    1    1    2    0    0  0.53983506186E-02 -0.24673043688E-02  0.22915561400E-01  0.23677287802E-01  0.51109989000E-03 0. -1.
     -623    1    1    2    0    0 -0.85823098971E-02  0.65293613349E-05  0.14705744708E-02  0.25126701509E+02  0.25126700000E+02 0. -1.
     -611    1    3    3    0    0 -0.25733688146E-01  0.53896935814E-01  0.82926397540E+01  0.82928608569E+01  0.10000000000E-01 0. -1.
      611    1    3    3    0    0  0.28917647425E-01 -0.51436160807E-01  0.36829740992E+01  0.36834603465E+01  0.10000000000E-01 0.  1.
</event>
<event>
 7   0  0.6206631E-02  0.9118800E+02  0.7818608E-02  0.1180000E+00
       11   -1    0    0    0    0  0.00000000000E+00  0.00000000000E+00  0.11999999989E+02  0.12000000000E+02  0.51109989000E-03 0. -1.
     -623   -1    0    0    0    0  0.00000000000E+00  0.00000000000E+00  0.42561509872E-11  0.25126700000E+02  0.25126700000E+02 0.  1.
      622    2    1    2    0    0  0.31287310124E-01 -0.40200684837E-01  0.11451326119E+02  0.11452142826E+02  0.12692690564E+00 0.  0.
       11    1    1    2    0    0  0.29139652041E-01  0.75098864799E-01  0.54180353817E+00  0.54775933950E+00  0.51109989000E-03 0. -1.
     -623    1    1    2    0    0 -0.60426962166E-01 -0.34898179962E-01  0.68703317782E-02  0.25126797834E+02  0.25126700000E+02 0.  1.
     -611    1    3    3    0    0  0.59424465743E-02  0.24340285241E-01  0.61621376848E+00  0.61680399692E+00  0.10000000000E-01 0.  1.
      611    1    3    3    0    0  0.25344863550E-01 -0.64540970077E-01  0.10835112351E+02  0.10835338830E+02  0.10000000000E-01 0. -1.
</event>
<event>
 7   0  0.6206631E-02  0.9118800E+02  0.7818608E-02  0.1180000E+00
       11   -1    0    0    0    0  0.00000000000E+00  0.00000000000E+00  0.11999999989E+02  0.12000000000E+02  0.51109989000E-03 0.  1.
     -623   -1    0    0    0    0  0.00000000000E+00  0.00000000000E+00  0.42561509872E-11  0.25126700000E+02  0.25126700000E+02 0. -1.
      622    2    1    2    0    0  0.45501872904E-01 -0.47146461182E-01  0.96613776769E+01  0.96625591588E+01  0.13615311931E+00 0.  0.
       11    1    1    2    0    0 -0.25383093297E-01  0.57930291825E-01  0.23365744891E+01  0.23374303892E+01  0.51109989000E-03 0.  1.
     -623    1    1    2    0    0 -0.20118779607E-01 -0.10783830643E-01  0.20478231450E-02  0.25126710452E+02  0.25126700000E+02 0. -1.
     -611    1    3    3    0    0 -0.16007498515E-01  0.75081568291E-02  0.25229792147E+00  0.25311430937E+00  0.10000000000E-01 0. -1.
      611    1    3    3    0    0  0.61509371419E-01 -0.54654618011E-01  0.94090797554E+01  0.94094448494E+01  0.10000000000E-01 0.  1.
</event>
<event>
 7   0  0.6206631E-02  0.9118800E+02  0.7818608E-02  0.1180000E+00
       11   -1    0    0    0    0  0.00000000000E+00  0.00000000000E+00  0.11999999989E+02  0.12000000000E+02  0.51109989000E-03 0. -1.
     -623   -1    0    0    0    0  0.00000000000E+00  0.00000000000E+00  0.42561509872E-11  0.25126700000E+02  0.25126700000E+02 0.  1.
      622    2    1    2    0    0 -0.32557865713E-01 -0.38719445738E-02  0.11946283624E+02  0.11947031109E+02  0.12955651387E+00 0.  0.
       11    1    1    2    0    0  0.12310184847E-01  0.29809883121E-01  0.41984524971E-01  0.52944606362E-01  0.51109989000E-03 0. -1.
     -623    1    1    2    0    0  0.20247680866E-01 -0.25937938547E-01  0.11731840156E-01  0.25126724285E+02  0.25126700000E+02 0.  1.
     -611    1    3    3    0    0  0.41968733459E-01 -0.31508663279E-01  0.45503075667E+01  0.45506211797E+01  0.10000000000E-01 0.  1.
      611    1    3    3    0    0 -0.74526599172E-01  0.27636718705E-01  0.73959760573E+01  0.73964099293E+01  0.10000000000E-01 0. -1.
</event>
<event>
 7   0  0.6206631E-02  0.9118800E+02  0.7818608E-02  0.1180000E+00
       11   -1    0    0    0    0  0.00000000000E+00  0.00000000000E+00  0.11999999989E+02  0.12000000000E+02  0.51109989000E-03 0. -1.
     -623   -1    0    0    0    0  0.00000000000E+00  0.00000000000E+00  0.42561509872E-11  0.25126700000E+02  0.25126700000E+02 0. -1.
      622    2    1    2    0    0 -0.10267879457E-01 -0.11245034300E-01  0.83841057584E+01  0.83847632890E+01  0.10389496859E+00 0.  0.
       11    1    1    2    0    0  0.11317958639E-01  0.71705528480E-02  0.36152114859E+01  0.36152363494E+01  0.51109989000E-03 0. -1.
     -623    1    1    2    0    0 -0.10500791818E-02  0.40744814522E-02  0.68274479848E-03  0.25126700362E+02  0.25126700000E+02 0. -1.
     -611    1    3    3    0    0  0.31663080675E-01 -0.54277748268E-02  0.10713814184E+01  0.10719095835E+01  0.10000000000E-01 0.  1.
      611    1    3    3    0    0 -0.41930960132E-01 -0.58172594734E-02  0.73127243400E+01  0.73128537056E+01  0.10000000000E-01 0. -1.
</event>
<event>
 7   0  0.6206631E-02  0.9118800E+02  0.7818608E-02  0.1180000E+00
       11   -1    0    0    0    0  0.00000000000E+00  0.00000000000E+00  0.11999999989E+02  0.12000000000E+02  0.51109989000E-03 0. -1.
     -623   -1    0    0    0    0  0.00000000000E+00  0.00000000000E+00  0.42561509872E-11  0.25126700000E+02  0.25126700000E+02 0. -1.
      622    2    1    2    0    0 -0.66202257550E-01  0.11740013680E-01  0.19772002827E+01  0.19795007932E+01  0.67689479443E-01 0.  0.
       11    1    1    2    0    0  0.11455648504E+00  0.41861609243E-01  0.10019653004E+02  0.10020395310E+02  0.51109989000E-03 0. -1.
     -623    1    1    2    0    0 -0.48354227488E-01 -0.53601622923E-01  0.31467020037E-02  0.25126803897E+02  0.25126700000E+02 0. -1.
     -611    1    3    3    0    0 -0.61163316608E-01  0.14397855422E-01  0.19248089271E+01  0.19258602378E+01  0.10000000000E-01 0. -1.
      611    1    3    3    0    0 -0.50389409417E-02 -0.26578417417E-02  0.52391355574E-01  0.53640555436E-01  0.10000000000E-01 0. -1.
</event>
<event>
 7   0  0.6206631E-02  0.9118800E+02  0.7818608E-02  0.1180000E+00
       11   -1    0    0    0    0  0.00000000000E+00  0.00000000000E+00  0.11999999989E+02  0.12000000000E+02  0.51109989000E-03 0.  1.
     -623   -1    0    0    0    0  0.00000000000E+00  0.00000000000E+00  0.42561509872E-11  0.25126700000E+02  0.25126700000E+02 0.  1.
      622    2    1    2    0    0  0.19508888197E-02  0.13668310368E-02  0.11869630455E+02  0.11869660909E+02  0.26781999102E-01 0.  0.
       11    1    1    2    0    0  0.60965107830E-02  0.91080874184E-02  0.12987296257E+00  0.13033561421E+00  0.51109989000E-03 0.  1.
     -623    1    1    2    0    0 -0.80473996027E-02 -0.10474918455E-01  0.49657147269E-03  0.25126703477E+02  0.25126700000E+02 0.  1.
     -611    1    3    3    0    0 -0.32702918096E-02 -0.71702560712E-02  0.57707800233E+01  0.57707940688E+01  0.10000000000E-01 0.  1.
      611    1    3    3    0    0  0.52211806293E-02  0.85370871080E-02  0.60988504316E+01  0.60988668398E+01  0.10000000000E-01 0.  1.
</event>
<event>
 7   0  0.6206631E-02  0.9118800E+02  0.7818608E-02  0.1180000E+00
       11   -1    0    0    0    0  0.00000000000E+00  0.00000000000E+00  0.11999999989E+02  0.12000000000E+02  0.51109989000E-03 0. -1.
     -623   -1    0    0    0    0  0.00000000000E+00  0.00000000000E+00  0.42561509872E-11  0.25126700000E+02  0.25126700000E+02 0. -1.
      622    2    1    2    0    0 -0.22560061456E-01  0.39643532294E-01  0.11152839741E+02  0.11153422232E+02  0.10446351137E+00 0.  0.
       11    1    1    2    0    0  0.18325890822E-01 -0.36877291369E-01  0.84557491487E+00  0.84657720899E+00  0.51109989000E-03 0. -1.
     -623    1    1    2    0    0  0.42341706344E-02 -0.27662409251E-02  0.15853330221E-02  0.25126700559E+02  0.25126700000E+02 0. -1.
     -611    1    3    3    0    0  0.33322813762E-01  0.33000592836E-01  0.30105675972E+01  0.30109494692E+01  0.10000000000E-01 0. -1.
      611    1    3    3    0    0 -0.55882875218E-01  0.66429394583E-02  0.81422721440E+01  0.81424727627E+01  0.10000000000E-01 0.  1.
</event>
<event>
 7   0  0.6206631E-02  0.9118800E+02  0.7818608E-02  0.1180000E+00
       11   -1    0    0    0    0  0.00000000000E+00  0.00000000000E+00  0.11999999989E+02  0.12000000000E+02  0.51109989000E-03 0. -1.
     -623   -1    0    0    0    0  0.00000000000E+00  0.00000000000E+00  0.42561509872E-11  0.25126700000E+02  0.25126700000E+02 0. -1.
      622    2    1    2    0    0 -0.44377826714E-02 -0.61662203184E-02  0.11993358147E+02  0.11993508655E+02  0.59602801345E-01 0.  0.
       11    1    1    2    0    0  0.58599054128E-03 -0.73171417838E-03  0.64016720717E-02  0.64901016171E-02  0.51109989000E-03 0. -1.
     -623    1    1    2    0    0  0.38517921301E-02  0.68979344967E-02  0.24016965628E-03  0.25126701243E+02  0.25126700000E+02 0. -1.
     -611    1    3    3    0    0 -0.30175385860E-01 -0.21715989062E-02  0.70090424599E+01  0.70091148853E+01  0.10000000000E-01 0. -1.
      611    1    3    3    0    0  0.25737603188E-01 -0.39946214121E-02  0.49843156875E+01  0.49843937700E+01  0.10000000000E-01 0.  1.
</event>
<event>
 7   0  0.6206631E-02  0.9118800E+02  0.7818608E-02  0.1180000E+00
       11   -1    0    0    0    0  0.00000000000E+00  0.00000000000E+00  0.11999999989E+02  0.12000000000E+02  0.51109989000E-03 0.  1.
     -623   -1    0    0    0    0  0.00000000000E+00  0.00000000000E+00  0.42561509872E-11  0.25126700000E+02  0.25126700000E+02 0. -1.
      622    2    1    2    0    0  0.43051439135E-02 -0.26807000629E-02  0.11975901477E+02  0.11976374897E+02  0.10636622796E+00 0.  0.
       11    1    1    2    0    0 -0.37485611118E-02  0.28713609340E-02  0.23142745283E-01  0.23625077913E-01  0.51109989000E-03 0.  1.
     -623    1    1    2    0    0 -0.55658280163E-03 -0.19066087108E-03  0.95576715708E-03  0.25126700025E+02  0.25126700000E+02 0. -1.
     -611    1    3    3    0    0 -0.18134378230E-01 -0.33018231769E-01  0.10061321749E+02  0.10061397239E+02  0.10000000000E-01 0.  1.
      611    1    3    3    0    0  0.22439522144E-01  0.30337531707E-01  0.19145797277E+01  0.19149776583E+01  0.10000000000E-01 0. -1.
</event>
<event>
 7   0  0.6206631E-02  0.9118800E+02  0.7818608E-02  0.1180000E+00
       11   -1    0    0    0    0  0.00000000000E+00  0.00000000000E+00  0.11999999989E+02  0.12000000000E+02  0.51109989000E-03 0. -1.
     -623   -1    0    0    0    0  0.00000000000E+00  0.00000000000E+00  0.42561509872E-11  0.25126700000E+02  0.25126700000E+02 0.  1.
      622    2    1    2    0    0  0.16998942245E-01 -0.83333682189E-02  0.11635590947E+02  0.11635970913E+02  0.92108624009E-01 0.  0.
       11    1    1    2    0    0 -0.35466409689E-01 -0.24671324769E-02  0.36227926416E+00  0.36401988877E+00  0.51109989000E-03 0. -1.
     -623    1    1    2    0    0  0.18467467444E-01  0.10800500696E-01  0.21297780304E-02  0.25126709198E+02  0.25126700000E+02 0.  1.
     -611    1    3    3    0    0 -0.13448933945E-02  0.36091911810E-01  0.74105669876E+01  0.74106617460E+01  0.10000000000E-01 0. -1.
      611    1    3    3    0    0  0.18343835640E-01 -0.44425280029E-01  0.42250239593E+01  0.42253091672E+01  0.10000000000E-01 0. -1.
</event>
<event>
 7   0  0.6206631E-02  0.9118800E+02  0.7818608E-02  0.1180000E+00
       11   -1    0    0    0    0  0.00000000000E+00  0.00000000000E+00  0.11999999989E+02  0.12000000000E+02  0.51109989000E-03 0.  1.
     -623   -1    0    0    0    0  0.00000000000E+00  0.00000000000E+00  0.42561509872E-11  0.25126700000E+02  0.25126700000E+02 0.  1.
      622    2    1    2    0    0 -0.29429666115E-01 -0.26753347935E-01  0.89031685771E+01  0.89038960638E+01  0.10664218464E+00 0.  0.
       11    1    1    2    0    0  0.59068488888E-01  0.81436677945E-01  0.30943918423E+01  0.30960268335E+01  0.51109989000E-03 0.  1.
     -623    1    1    2    0    0 -0.29638822772E-01 -0.54683330009E-01  0.24395696965E-02  0.25126777103E+02  0.25126700000E+02 0.  1.
     -611    1    3    3    0    0  0.16986658051E-01 -0.44175641191E-01  0.65761642036E+01  0.65763421190E+01  0.10000000000E-01 0. -1.
      611    1    3    3    0    0 -0.46416324167E-01  0.17422293256E-01  0.23270043736E+01  0.23275539448E+01  0.10000000000E-01 0.  1.
</event>
<event>
 7   0  0.6206631E-02  0.9118800E+02  0.7818608E-02  0.1180000E+00
       11   -1    0    0    0    0  0.00000000000E+00  0.00000000000E+00  0.11999999989E+02  0.12000000000E+02  0.51109989000E-03 0. -1.
     -623   -1    0    0    0    0  0.00000000000E+00  0.00000000000E+00  0.42561509872E-11  0.25126700000E+02  0.25126700000E+02 0. -1.
      622    2    1    2    0    0 -0.11811114308E-01 -0.59872133015E-02  0.11719731571E+02  0.11720036200E+02  0.83457155330E-01 0.  0.
       11    1    1    2    0    0  0.11772286196E-01  0.48717381349E-02  0.27967325499E+00  0.27996376789E+00  0.51109989000E-03 0. -1.
     -623    1    1    2    0    0  0.38828111589E-04  0.11154751666E-02  0.59516341542E-03  0.25126700032E+02  0.25126700000E+02 0. -1.
     -611    1    3    3    0    0 -0.33390807988E-01  0.39950791389E-02  0.10363381336E+02  0.10363440723E+02  0.10000000000E-01 0. -1.
      611    1    3    3    0    0  0.21579693680E-01 -0.99822924404E-02  0.13563502346E+01  0.13565954770E+01  0.10000000000E-01 0. -1.
</event>
<event>
 7   0  0.6206631E-02  0.9118800E+02  0.7818608E-02  0.1180000E+00
       11   -1    0    0    0    0  0.00000000000E+00  0.00000000000E+00  0.11999999989E+02  0.12000000000E+02  0.51109989000E-03 0. -1.
     -623   -1    0    0    0    0  0.00000000000E+00  0.00000000000E+00  0.42561509872E-11  0.25126700000E+02  0.25126700000E+02 0. -1.
      622    2    1    2    0    0  0.29046850993E-02  0.26782209243E-02  0.11935417463E+02  0.11935819448E+02  0.97878868264E-01 0.  0.
       11    1    1    2    0    0 -0.20072919580E-02 -0.24086353642E-02  0.64101859871E-01  0.64180529815E-01  0.51109989000E-03 0. -1.
     -623    1    1    2    0    0 -0.89739314132E-03 -0.26958556011E-03  0.48066629016E-03  0.25126700022E+02  0.25126700000E+02 0. -1.
     -611    1    3    3    0    0  0.51620167483E-02  0.47339574096E-01  0.45591221307E+01  0.45593817875E+01  0.10000000000E-01 0. -1.
      611    1    3    3    0    0 -0.22573316489E-02 -0.44661353172E-01  0.73762953323E+01  0.73764376606E+01  0.10000000000E-01 0.  1.
</event>
<event>
 7   0  0.6206631E-02  0.9118800E+02  0.7818608E-02  0.1180000E+00
       11   -1    0    0    0    0  0.00000000000E+00  0.00000000000E+00  0.11999999989E+02  0.12000000000E+02  0.51109989000E-03 0. -1.
     -623   -1    0    0    0    0  0.00000000000E+00  0.00000000000E+00  0.42561509872E-11  0.25126700000E+02  0.25126700000E+02 0.  1.
      622    2    1    2    0    0  0.35145420824E-01 -0.79833136340E-01  0.70075423948E+01  0.70085193100E+01  0.77999825747E-01 0.  0.
       11    1    1    2    0    0 -0.41353728252E-01  0.77184308559E-01  0.49907115738E+01  0.49914797228E+01  0.51109989000E-03 0. -1.
     -623    1    1    2    0    0  0.62083074283E-02  0.26488277809E-02  0.17460204598E-02  0.25126700967E+02  0.25126700000E+02 0.  1.
     -611    1    3    3    0    0  0.66476076421E-02 -0.15917470061E-01  0.43239927087E+01  0.43240386794E+01  0.10000000000E-01 0.  1.
      611    1    3    3    0    0  0.28497813182E-01 -0.63915666279E-01  0.26835496862E+01  0.26844806306E+01  0.10000000000E-01 0. -1.
</event>
<event>
 7   0  0.6206631E-02  0.9118800E+02  0.7818608E-02  0.1180000E+00
       11   -1    0    0    0    0  0.00000000000E+00  0.00000000000E+00  0.11999999989E+02  0.12000000000E+02  0.51109989000E-03 0.  1.
     -623   -1    0    0    0    0  0.00000000000E+00  0.00000000000E+00  0.42561509872E-11  0.25126700000E+02  0.25126700000E+02 0.  1.
      622    2    1    2    0    0  0.11369017142E-01 -0.21007259439E-01  0.11222186104E+02  0.11223050027E+02  0.13718751258E+00 0.  0.
       11    1    1    2    0    0  0.90638447783E-02 -0.20614310341E-01  0.77658056522E+00  0.77690716214E+00  0.51109989000E-03 0.  1.
     -623    1    1    2    0    0 -0.20432861921E-01  0.41621569780E-01  0.12333203664E-02  0.25126742811E+02  0.25126700000E+02 0.  1.
     -611    1    3    3    0    0 -0.15507733035E-01  0.18924421072E-02  0.10427994397E+02  0.10428010895E+02  0.10000000000E-01 0.  1.
      611    1    3    3    0    0  0.26876750177E-01 -0.22899701546E-01  0.79419170605E+00  0.79503913236E+00  0.10000000000E-01 0. -1.
</event>
<event>
 7   0  0.6206631E-02  0.9118800E+02  0.7818608E-02  0.1180000E+00
       11   -1    0    0    0    0  0.00000000000E+00  0.00000000000E+00  0.11999999989E+02  0.12000000000E+02  0.51109989000E-03 0.  1.
     -623   -1    0    0    0    0  0.00000000000E+00  0.00000000000E+00  0.42561509872E-11  0.25126700000E+02  0.25126700000E+02 0.  1.
      622    2    1    2    0    0 -0.30803937653E-02 -0.45215022295E-02  0.11609074054E+02  0.11609457693E+02  0.94221071253E-01 0.  0.
       11    1    1    2    0    0 -0.18519457877E-02 -0.25515760881E-02  0.39052776294E+00  0.39054082385E+00  0.51109989000E-03 0.  1.
     -623    1    1    2    0    0  0.49323395530E-02  0.70730783177E-02  0.39817219257E-03  0.25126701483E+02  0.25126700000E+02 0.  1.
     -611    1    3    3    0    0  0.43591246582E-01 -0.48035527324E-02  0.45525490865E+01  0.45527712940E+01  0.10000000000E-01 0. -1.
      611    1    3    3    0    0 -0.46671640348E-01  0.28205050286E-03  0.70565249675E+01  0.70566863993E+01  0.10000000000E-01 0.  1.
</event>
<event>
 7   0  0.6206631E-02  0.9118800E+02  0.7818608E-02  0.1180000E+00
       11   -1    0    0    0    0  0.00000000000E+00  0.00000000000E+00  0.11999999989E+02  0.12000000000E+02  0.51109989000E-03 0.  1.
     -623   -1    0    0    0    0  0.00000000000E+00  0.00000000000E+00  0.42561509872E-11  0.25126700000E+02  0.25126700000E+02 0.  1.
      622    2    1    2    0    0  0.11481445670E+00 -0.41068955083E-01  0.96541999449E+01  0.96555805366E+01  0.10858132159E+00 0.  0.
       11    1    1    2    0    0 -0.12346303914E+00  0.34496514943E-01  0.23409092222E+01  0.23444166394E+01  0.51109989000E-03 0.  1.
     -623    1    1    2    0    0  0.86485824370E-02  0.65724401403E-02  0.48908220331E-02  0.25126702824E+02  0.25126700000E+02 0.  1.
     -611    1    3    3    0    0 -0.12059667915E-02  0.23911437413E-01  0.93150033833E+00  0.93186162680E+00  0.10000000000E-01 0. -1.
      611    1    3    3    0    0  0.11602042350E+00 -0.64980392497E-01  0.87226996066E+01  0.87237189098E+01  0.10000000000E-01 0.  1.
</event>
<event>
 6   0  0.6206631E-02  0.9118800E+02  0.7818608E-02  0.1180000E+00
       11   -1    0    0    0    0  0.00000000000E+00  0.00000000000E+00  0.11999999989E+02  0.12000000000E+02  0.51109989000E-03 0.  1.
     -623   -1    0    0    0    0  0.00000000000E+00  0.00000000000E+00  0.42561509872E-11  0.25126700000E+02  0.25126700000E+02 0.  1.
       11    1    1    2    0    0 -0.17900967410E-01  0.29726261736E-01  0.37247735141E+00  0.37409054226E+00  0.51109989000E-03 0.  1.
     -623    1    1    2    0    0  0.89230802802E-02  0.36305357698E-02  0.38895669245E-02  0.25126702148E+02  0.25126700000E+02 0.  1.
     -611    1    1    2    0    0 -0.64609396481E-01 -0.68360525857E-01  0.23398238323E+01  0.23417350623E+01  0.10000000000E-01 0. -1.
      611    1    1    2    0    0  0.73587283611E-01  0.35003728351E-01  0.92838092385E+01  0.92841722478E+01  0.10000000000E-01 0.  1.
</event>
<event>
 7   0  0.6206631E-02  0.9118800E+02  0.7818608E-02  0.1180000E+00
       11   -1    0    0    0    0  0.00000000000E+00  0.00000000000E+00  0.11999999989E+02  0.12000000000E+02  0.51109989000E-03 0.  1.
     -623   -1    0    0    0    0  0.00000000000E+00  0.00000000000E+00  0.42561509872E-11  0.25126700000E+02  0.25126700000E+02 0.  1.
      622    2    1    2    0    0 -0.33647780283E-01 -0.72867280959E-02  0.11224187664E+02  0.11224741030E+02  0.10600564477E+00 0.  0.
       11    1    1    2    0    0  0.37862708325E-01  0.64999279942E-02  0.77430597240E+00  0.77525855936E+00  0.51109989000E-03 0.  1.
     -623    1    1    2    0    0 -0.42149280421E-02  0.78680010171E-03  0.15063527340E-02  0.25126700411E+02  0.25126700000E+02 0.  1.
     -611    1    3    3    0    0 -0.32569238140E-01  0.43438674211E-01  0.73650956845E+01  0.73653025814E+01  0.10000000000E-01 0. -1.
      611    1    3    3    0    0 -0.10785421426E-02 -0.50725402307E-01  0.38590919795E+01  0.38594384483E+01  0.10000000000E-01 0.  1.
</event>
<event>
 7   0  0.6206631E-02  0.9118800E+02  0.7818608E-02  0.1180000E+00
       11   -1    0    0    0    0  0.00000000000E+00  0.00000000000E+00  0.11999999989E+02  0.12000000000E+02  0.51109989000E-03 0. -1.
     -623   -1    0    0    0    0  0.00000000000E+00  0.00000000000E+00  0.42561509872E-11  0.25126700000E+02  0.25126700000E+02 0.  1.
      622    2    1    2    0    0  0.62269943980E-01 -0.18262597953E-01  0.77026287778E+01  0.77033548815E+01  0.83518103364E-01 0.  0.
       11    1    1    2    0    0 -0.61956872022E-01  0.15863311962E-01  0.42961689290E+01  0.42966449732E+01  0.51109989000E-03 0. -1.
     -623    1    1    2    0    0 -0.31307195835E-03  0.23992859909E-02  0.12022823789E-02  0.25126700145E+02  0.25126700000E+02 0.  1.
     -611    1    3    3    0    0  0.14260527081E-01 -0.22698145424E-01  0.74123285137E+00  0.74178481272E+00  0.10000000000E-01 0.  1.
      611    1    3    3    0    0  0.48009416899E-01  0.44355474704E-02  0.69613959264E+01  0.69615700688E+01  0.10000000000E-01 0. -1.
</event>
<event>
 7   0  0.6206631E-02  0.9118800E+02  0.7818608E-02  0.1180000E+00
       11   -1    0    0    0    0  0.00000000000E+00  0.00000000000E+00  0.11999999989E+02  0.12000000000E+02  0.51109989000E-03 0. -1.
     -623   -1    0    0    0    0  0.00000000000E+00  0.00000000000E+00  0.42561509872E-11  0.25126700000E+02  0.25126700000E+02 0. -1.
      622    2    1    2    0    0 -0.24337271553E-01  0.99559384685E-02  0.76078814652E+01  0.76082401175E+01  0.69035299462E-01 0.  0.
       11    1    1    2    0    0  0.24508325328E-01 -0.10747971208E-01  0.43916782987E+01  0.43917598656E+01  0.51109989000E-03 0. -1.
     -623    1    1    2    0    0 -0.17105377518E-03  0.79203273992E-03  0.44022521404E-03  0.25126700017E+02  0.25126700000E+02 0. -1.
     -611    1    3    3    0    0  0.12006549662E-02 -0.16716594702E-01  0.53424288705E+01  0.53424645176E+01  0.10000000000E-01 0. -1.
      611    1    3    3    0    0 -0.25537926519E-01  0.26672533170E-01  0.22654525948E+01  0.22657755999E+01  0.10000000000E-01 0.  1.
</event>
<event>
 7   0  0.6206631E-02  0.9118800E+02  0.7818608E-02  0.1180000E+00
       11   -1    0    0    0    0  0.00000000000E+00  0.00000000000E+00  0.11999999989E+02  0.12000000000E+02  0.51109989000E-03 0. -1.
     -623   -1    0    0    0    0  0.00000000000E+00  0.00000000000E+00  0.42561509872E-11  0.25126700000E+02  0.25126700000E+02 0.  1.
      622    2    1    2    0    0 -0.78999750517E-01  0.43614350770E-01  0.31780541313E+01  0.31807293232E+01  0.94168964533E-01 0.  0.
       11    1    1    2    0    0  0.85290803402E-01 -0.55851707547E-01  0.88186773879E+01  0.88192666967E+01  0.51109989000E-03 0. -1.
     -623    1    1    2    0    0 -0.62910528848E-02  0.12237356776E-01  0.32684699182E-02  0.25126703980E+02  0.25126700000E+02 0.  1.
     -611    1    3    3    0    0 -0.55671275740E-01  0.10295210369E-01  0.27564942466E+01  0.27570937259E+01  0.10000000000E-01 0.  1.
      611    1    3    3    0    0 -0.23328474777E-01  0.33319140401E-01  0.42155988473E+00  0.42363559726E+00  0.10000000000E-01 0. -1.
</event>
<event>
 7   0  0.6206631E-02  0.9118800E+02  0.7818608E-02  0.1180000E+00
       11   -1    0    0    0    0  0.00000000000E+00  0.00000000000E+00  0.11999999989E+02  0.12000000000E+02  0.51109989000E-03 0. -1.
     -623   -1    0    0    0    0  0.00000000000E+00  0.00000000000E+00  0.42561509872E-11  0.25126700000E+02  0.25126700000E+02 0. -1.
      622    2    1    2    0    0 -0.37266232461E-02 -0.11151511385E-01  0.11911342751E+02  0.11911860020E+02  0.11038462499E+00 0.  0.
       11    1    1    2    0    0 -0.81925836031E-02 -0.26267055633E-01  0.83700795333E-01  0.88108802059E-01  0.51109989000E-03 0. -1.
     -623    1    1    2    0    0  0.11919206849E-01  0.37418567018E-01  0.49564426912E-02  0.25126731178E+02  0.25126700000E+02 0. -1.
     -611    1    3    3    0    0 -0.90128169899E-02 -0.51079895705E-01  0.95959472390E+01  0.95960926319E+01  0.10000000000E-01 0. -1.
      611    1    3    3    0    0  0.52861937439E-02  0.39928384320E-01  0.23153955121E+01  0.23157673884E+01  0.10000000000E-01 0.  1.
</event>
<event>
 7   0  0.6206631E-02  0.9118800E+02  0.7818608E-02  0.1180000E+00
       11   -1    0    0    0    0  0.00000000000E+00  0.00000000000E+00  0.11999999989E+02  0.12000000000E+02  0.51109989000E-03 0. -1.
     -623   -1    0    0    0    0  0.00000000000E+00  0.00000000000E+00  0.42561509872E-11  0.25126700000E+02  0.25126700000E+02 0.  1.
      622    2    1    2    0    0  0.11940512150E-02  0.27884221670E-02  0.11992674706E+02  0.11993161148E+02  0.10797460437E+00 0.  0.
       11    1    1    2    0    0  0.15801420918E-03  0.11709890093E-02  0.67162207048E-02  0.68384959936E-02  0.51109989000E-03 0. -1.
     -623    1    1    2    0    0 -0.13520654242E-02 -0.39594111763E-02  0.60906205385E-03  0.25126700356E+02  0.25126700000E+02 0.  1.
     -611    1    3    3    0    0 -0.95960450769E-02  0.29841784607E-01  0.12233121289E+01  0.12237545428E+01  0.10000000000E-01 0.  1.
      611    1    3    3    0    0  0.10790096292E-01 -0.27053362440E-01  0.10769362577E+02  0.10769406605E+02  0.10000000000E-01 0. -1.
</event>
<event>
 7   0  0.6206631E-02  0.9118800E+02  0.7818608E-02  0.1180000E+00
       11   -1    0    0    0    0  0.00000000000E+00  0.00000000000E+00  0.11999999989E+02  0.12000000000E+02  0.51109989000E-03 0. -1.
     -623   -1    0    0    0    0  0.00000000000E+00  0.00000000000E+00  0.42561509872E-11  0.25126700000E+02  0.25126700000E+02 0.  1.
      622    2    1    2    0    0 -0.76399166240E-02  0.39598273512E-02  0.11915638246E+02  0.11915941132E+02  0.84523378451E-01 0.  0.
       11    1    1    2    0    0  0.74087175164E-02 -0.22066618426E-02  0.83701025814E-01  0.84058797263E-01  0.51109989000E-03 0. -1.
     -623    1    1    2    0    0  0.23119910756E-03 -0.17531655087E-02  0.66071740999E-03  0.25126700071E+02  0.25126700000E+02 0.  1.
     -611    1    3    3    0    0  0.24675598144E-01 -0.22295148862E-01  0.30169151153E+01  0.30171149749E+01  0.10000000000E-01 0. -1.
      611    1    3    3    0    0 -0.32315514768E-01  0.26254976213E-01  0.88987231306E+01  0.88988261569E+01  0.10000000000E-01 0. -1.
</event>
<event>
 7   0  0.6206631E-02  0.9118800E+02  0.7818608E-02  0.1180000E+00
       11   -1    0    0    0    0  0.00000000000E+00  0.00000000000E+00  0.11999999989E+02  0.12000000000E+02  0.51109989000E-03 0. -1.
     -623   -1    0    0    0    0  0.00000000000E+00  0.00000000000E+00  0.42561509872E-11  0.25126700000E+02  0.25126700000E+02 0.  1.
      622    2    1    2    0    0  0.24961492209E-01  0.41638520667E-02  0.11696150913E+02  0.11696569644E+02  0.95680972116E-01 0.  0.
       11    1    1    2    0    0 -0.20240864712E-01  0.42295522387E-02  0.30272265020E+00  0.30342848562E+00  0.51109989000E-03 0. -1.
     -623    1    1    2    0    0 -0.47206274974E-02 -0.83934043055E-02  0.11264263144E-02  0.25126701871E+02  0.25126700000E+02 0.  1.
     -611    1    3    3    0    0  0.95038966491E-02  0.40411296356E-01  0.27976482719E+01  0.27979741332E+01  0.10000000000E-01 0.  1.
      611    1    3    3    0    0  0.15457595560E-01 -0.36247444289E-01  0.88985026407E+01  0.88985955106E+01  0.10000000000E-01 0. -1.
</event>
<event>
 7   0  0.6206631E-02  0.9118800E+02  0.7818608E-02  0.1180000E+00
       11   -1    0    0    0    0  0.00000000000E+00  0.00000000000E+00  0.11999999989E+02  0.12000000000E+02  0.51109989000E-03 0.  1.
     -623   -1    0    0    0    0  0.00000000000E+00  0.00000000000E+00  0.42561509872E-11  0.25126700000E+02  0.25126700000E+02 0.  1.
      622    2    1    2    0    0  0.28458859653E-02 -0.49399999182E-01  0.10861319114E+02  0.10861798966E+02  0.89305187421E-01 0.  0.
       11    1    1    2    0    0 -0.32209722848E-02  0.45843995187E-01  0.11372724465E+01  0.11382007404E+01  0.51109989000E-03 0.  1.
     -623    1    1    2    0    0  0.37508631947E-03  0.35560039946E-02  0.14084285936E-02  0.25126700294E+02  0.25126700000E+02 0.  1.
     -611    1    3    3    0    0  0.28687812224E-01 -0.61923689215E-01  0.62757056014E+01  0.62760846337E+01  0.10000000000E-01 0.  1.
      611    1    3    3    0    0 -0.25841926259E-01  0.12523690034E-01  0.45856135126E+01  0.45857143320E+01  0.10000000000E-01 0. -1.
</event>
<event>
 6   0  0.6206631E-02  0.9118800E+02  0.7818608E-02  0.1180000E+00
       11   -1    0    0    0    0  0.00000000000E+00  0.00000000000E+00  0.11999999989E+02  0.12000000000E+02  0.51109989000E-03 0. -1.
     -623   -1    0    0    0    0  0.00000000000E+00  0.00000000000E+00  0.42561509872E-11  0.25126700000E+02  0.25126700000E+02 0.  1.
       11    1    1    2    0    0 -0.66476925243E-01 -0.13688824169E+00  0.72290931759E+01  0.72306947093E+01  0.51109989000E-03 0. -1.
     -623    1    1    2    0    0 -0.18302762525E-02 -0.87240296509E-02  0.98946881508E-02  0.25126703529E+02  0.25126700000E+02 0.  1.
     -611    1    1    2    0    0 -0.78623054518E-01  0.37423796676E-01  0.22187304245E+01  0.22204609481E+01  0.10000000000E-01 0. -1.
      611    1    1    2    0    0  0.14693025601E+00  0.10818847467E+00  0.25422817006E+01  0.25488408132E+01  0.10000000000E-01 0.  1.
</event>
<event>
 7   0  0.6206631E-02  0.9118800E+02  0.7818608E-02  0.1180000E+00
       11   -1    0    0    0    0  0.00000000000E+00  0.00000000000E+00  0.11999999989E+02  0.12000000000E+02  0.51109989000E-03 0.  1.
     -623   -1    0    0    0    0  0.00000000000E+00  0.00000000000E+00  0.42561509872E-11  0.25126700000E+02  0.25126700000E+02 0.  1.
      622    2    1    2    0    0 -0.34937791562E-01  0.44642043810E-01  0.10803618432E+02  0.10804268877E+02  0.10412099040E+00 0.  0.
       11    1    1    2    0    0  0.38889107864E-01 -0.38102073176E-01  0.11944896721E+01  0.11957298895E+01  0.51109989000E-03 0.  1.
     -623    1    1    2    0    0 -0.39513163023E-02 -0.65399706339E-02  0.18918845356E-02  0.25126701233E+02  0.25126700000E+02 0.  1.
     -611    1    3    3    0    0 -0.21414849866E-01  0.53865844229E-01  0.10424124561E+02  0.10424290526E+02  0.10000000000E-01 0.  1.
      611    1    3    3    0    0 -0.13522941696E-01 -0.92238004186E-02  0.37949387187E+00  0.37997835100E+00  0.10000000000E-01 0.  1.
</event>
<event>
 7   0  0.6206631E-02  0.9118800E+02  0.7818608E-02  0.1180000E+00
       11   -1    0    0    0    0  0.00000000000E+00  0.00000000000E+00  0.11999999989E+02  0.12000000000E+02  0.51109989000E-03 0.  1.
     -623   -1    0    0    0    0  0.00000000000E+00  0.00000000000E+00  0.42561509872E-11  0.25126700000E+02  0.25126700000E+02 0. -1.
      622    2    1    2    0    0 -0.28849049996E-01  0.58697167693E-02  0.11188337123E+02  0.11189074786E+02  0.12506100088E+00 0.  0.
       11    1    1    2    0    0  0.30338550024E-01 -0.82174949518E-03  0.81035633520E+00  0.81092462912E+00  0.51109989000E-03 0.  1.
     -623    1    1    2    0    0 -0.14895000278E-02 -0.50479672742E-02  0.13065306176E-02  0.25126700585E+02  0.25126700000E+02 0. -1.
     -611    1    3    3    0    0  0.18058395796E-01 -0.38847175113E-01  0.76731197155E+01  0.76732458176E+01  0.10000000000E-01 0.  1.
      611    1    3    3    0    0 -0.46907445792E-01  0.44716891882E-01  0.35152174078E+01  0.35158289681E+01  0.10000000000E-01 0. -1.
</event>
<event>
 7   0  0.6206631E-02  0.9118800E+02  0.7818608E-02  0.1180000E+00
       11   -1    0    0    0    0  0.00000000000E+00  0.00000000000E+00  0.11999999989E+02  0.12000000000E+02  0.51109989000E-03 0.  1.
     -623   -1    0    0    0    0  0.00000000000E+00  0.00000000000E+00  0.42561509872E-11  0.25126700000E+02  0.25126700000E+02 0. -1.
      622    2    1    2    0    0 -0.36374887616E-01 -0.64006674238E-01  0.78085129008E+01  0.78091649746E+01  0.69020949975E-01 0.  0.
       11    1    1    2    0    0  0.14320489736E-01  0.63103868602E-01  0.41903256781E+01  0.41908253035E+01  0.51109989000E-03 0.  1.
     -623    1    1    2    0    0  0.22054397880E-01  0.90280563571E-03  0.11614102371E-02  0.25126709722E+02  0.25126700000E+02 0. -1.
     -611    1    3    3    0    0 -0.86716153341E-02 -0.16010260414E-01  0.49548841602E+00  0.49592367937E+00  0.10000000000E-01 0. -1.
      611    1    3    3    0    0 -0.27703272282E-01 -0.47996413824E-01  0.73130244848E+01  0.73132412952E+01  0.10000000000E-01 0.  1.
</event>
<event>
 7   0  0.6206631E-02  0.9118800E+02  0.7818608E-02  0.1180000E+00
       11   -1    0    0    0    0  0.00000000000E+00  0.00000000000E+00  0.11999999989E+02  0.12000000000E+02  0.51109989000E-03 0.  1.
     -623   -1    0    0    0    0  0.00000000000E+00  0.00000000000E+00  0.42561509872E-11  0.25126700000E+02  0.25126700000E+02 0.  1.
      622    2    1    2    0    0 -0.30279577108E-02 -0.28776554812E-02  0.11838662208E+02  0.11839034709E+02  0.93821674642E-01 0.  0.
       11    1    1    2    0    0 -0.84185104440E-02 -0.15904649490E-02  0.16073329870E+00  0.16096227952E+00  0.51109989000E-03 0.  1.
     -623    1    1    2    0    0  0.11446468155E-01  0.44681204302E-02  0.60448229680E-03  0.25126703012E+02  0.25126700000E+02 0.  1.
     -611    1    3    3    0    0 -0.41055822338E-01 -0.24604153033E-01  0.59058105195E+01  0.59060129391E+01  0.10000000000E-01 0.  1.
      611    1    3    3    0    0  0.38027864628E-01  0.21726497552E-01  0.59328516887E+01  0.59330217696E+01  0.10000000000E-01 0. -1.
</event>
<event>
 7   0  0.6206631E-02  0.9118800E+02  0.7818608E-02  0.1180000E+00
       11   -1    0    0    0    0  0.00000000000E+00  0.00000000000E+00  0.11999999989E+02  0.12000000000E+02  0.51109989000E-03 0. -1.
     -623   -1    0    0    0    0  0.00000000000E+00  0.00000000000E+00  0.42561509872E-11  0.25126700000E+02  0.25126700000E+02 0. -1.
      622    2    1    2    0    0  0.39792323059E-01 -0.17819926458E-01  0.10839897814E+02  0.10840933825E+02  0.14338966869E+00 0.  0.
       11    1    1    2    0    0 -0.11698490959E-01  0.33952269265E-01  0.11584886674E+01  0.11590452385E+01  0.51109989000E-03 0. -1.
     -623    1    1    2    0    0 -0.28093832100E-01 -0.16132342807E-01  0.16135073431E-02  0.25126720936E+02  0.25126700000E+02 0. -1.
     -611    1    3    3    0    0 -0.17369167400E-02  0.36077088739E-01  0.87898990125E+00  0.87978850851E+00  0.10000000000E-01 0.  1.
      611    1    3    3    0    0  0.41529239799E-01 -0.53897015197E-01  0.99609079132E+01  0.99611453167E+01  0.10000000000E-01 0. -1.
</event>
<event>
 7   0  0.6206631E-02  0.9118800E+02  0.7818608E-02  0.1180000E+00
       11   -1    0    0    0    0  0.00000000000E+00  0.00000000000E+00  0.11999999989E+02  0.12000000000E+02  0.51109989000E-03 0.  1.
     -623   -1    0    0    0    0  0.00000000000E+00  0.00000000000E+00  0.42561509872E-11  0.25126700000E+02  0.25126700000E+02 0. -1.
      622    2    1    2    0    0  0.10281775646E-01  0.26234183254E-02  0.11986457434E+02  0.11987111666E+02  0.12478652637E+00 0.  0.
       11    1    1    2    0    0 -0.95191203639E-02 -0.39358101214E-02  0.77282044636E-02  0.12887615030E-01  0.51109989000E-03 0.  1.
     -623    1    1    2    0    0 -0.76265528164E-03  0.13123917960E-02  0.58143501889E-02  0.25126700719E+02  0.25126700000E+02 0. -1.
     -611    1    3    3    0    0  0.64293919603E-01 -0.11257375289E-02  0.47652184561E+01  0.47656627986E+01  0.10000000000E-01 0.  1.
      611    1    3    3    0    0 -0.54012143957E-01  0.37491558543E-02  0.72212389783E+01  0.72214488678E+01  0.10000000000E-01 0. -1.
</event>
<event>
 7   0  0.6206631E-02  0.9118800E+02  0.7818608E-02  0.1180000E+00
       11   -1    0    0    0    0  0.00000000000E+00  0.00000000000E+00  0.11999999989E+02  0.12000000000E+02  0.51109989000E-03 0.  1.
     -623   -1    0    0    0    0  0.00000000000E+00  0.00000000000E+00  0.42561509872E-11  0.25126700000E+02  0.25126700000E+02 0.  1.
      622    2    1    2    0    0 -0.50533744849E-03 -0.53707684688E-02  0.11960671610E+02  0.11961024922E+02  0.91775321093E-01 0.  0.
       11    1    1    2    0    0 -0.89321007276E-03  0.42944974898E-02  0.38724017907E-01  0.38975008903E-01  0.51109989000E-03 0.  1.
     -623    1    1    2    0    0  0.13985475213E-02  0.10762709790E-02  0.60436083849E-03  0.25126700069E+02  0.25126700000E+02 0.  1.
     -611    1    3    3    0    0  0.43519811091E-01 -0.20448840357E-02  0.71737377768E+01  0.71738770442E+01  0.10000000000E-01 0.  1.
      611    1    3    3    0    0 -0.44025148540E-01 -0.33258844330E-02  0.47869338336E+01  0.47871478776E+01  0.10000000000E-01 0.  1.
</event>
<event>
 7   0  0.6206631E-02  0.9118800E+02  0.7818608E-02  0.1180000E+00
       11   -1    0    0    0    0  0.00000000000E+00  0.00000000000E+00  0.11999999989E+02  0.12000000000E+02  0.51109989000E-03 0. -1.
     -623   -1    0    0    0    0  0.00000000000E+00  0.00000000000E+00  0.42561509872E-11  0.25126700000E+02  0.25126700000E+02 0.  1.
      622    2    1    2    0    0  0.21357550972E-01  0.71391538674E-02  0.10907035168E+02  0.10907262951E+02  0.66796888665E-01 0.  0.
       11    1    1    2    0    0 -0.27988931767E-01  0.11505747714E-01  0.10923100223E+01  0.10927292476E+01  0.51109989000E-03 0. -1.
     -623    1    1    2    0    0  0.66313807945E-02 -0.18644901581E-01  0.65479909864E-03  0.25126707801E+02  0.25126700000E+02 0.  1.
     -611    1    3    3    0    0 -0.11631969572E-02 -0.23462886409E-01  0.65764048012E+01  0.65764543615E+01  0.10000000000E-01 0. -1.
      611    1    3    3    0    0  0.22520747929E-01  0.30602040276E-01  0.43306303665E+01  0.43308085896E+01  0.10000000000E-01 0. -1.
</event>
<event>
 7   0  0.6206631E-02  0.9118800E+02  0.7818608E-02  0.1180000E+00
       11   -1    0    0    0    0  0.00000000000E+00  0.00000000000E+00  0.11999999989E+02  0.12000000000E+02  0.51109989000E-03 0. -1.
     -623   -1    0    0    0    0  0.00000000000E+00  0.00000000000E+00  0.42561509872E-11  0.25126700000E+02  0.25126700000E+02 0.  1.
      622    2    1    2    0    0 -0.10319797094E-02 -0.25512893386E-02  0.11952797618E+02  0.11953146233E+02  0.91249003772E-01 0.  0.
       11    1    1    2    0    0  0.34736310724E-03  0.17947503851E-02  0.46815278266E-01  0.46853743632E-01  0.51109989000E-03 0. -1.
     -623    1    1    2    0    0  0.68461660214E-03  0.75653895349E-03  0.38709251992E-03  0.25126700024E+02  0.25126700000E+02 0.  1.
     -611    1    3    3    0    0 -0.28456910364E-01 -0.66919391558E-02  0.10519658178E+02  0.10519703549E+02  0.10000000000E-01 0. -1.
      611    1    3    3    0    0  0.27424930655E-01  0.41406498172E-02  0.14331394406E+01  0.14334426839E+01  0.10000000000E-01 0.  1.
</event>
<event>
 7   0  0.6206631E-02  0.9118800E+02  0.7818608E-02  0.1180000E+00
       11   -1    0    0    0    0  0.00000000000E+00  0.00000000000E+00  0.11999999989E+02  0.12000000000E+02  0.51109989000E-03 0.  1.
     -623   -1    0    0    0    0  0.00000000000E+00  0.00000000000E+00  0.42561509872E-11  0.25126700000E+02  0.25126700000E+02 0.  1.
      622    2    1    2    0    0 -0.54079693716E-01 -0.12000552859E-01  0.10738583117E+02  0.10739345293E+02  0.11533138378E+00 0.  0.
       11    1    1    2    0    0  0.47723466800E-01 -0.67330618785E-02  0.12597251239E+01  0.12606468627E+01  0.51109989000E-03 0.  1.
     -623    1    1    2    0    0  0.63562269164E-02  0.18733614738E-01  0.16917480703E-02  0.25126707844E+02  0.25126700000E+02 0.  1.
     -611    1    3    3    0    0 -0.68489556637E-01 -0.19499840589E-03  0.10317134518E+02  0.10317366695E+02  0.10000000000E-01 0.  1.
      611    1    3    3    0    0  0.14409862920E-01 -0.11805554453E-01  0.42144859889E+00  0.42197859753E+00  0.10000000000E-01 0. -1.
</event>
<event>
 7   0  0.6206631E-02  0.9118800E+02  0.7818608E-02  0.1180000E+00
       11   -1    0    0    0    0  0.00000000000E+00  0.00000000000E+00  0.11999999989E+02  0.12000000000E+02  0.51109989000E-03 0.  1.
     -623   -1    0    0    0    0  0.00000000000E+00  0.00000000000E+00  0.42561509872E-11  0.25126700000E+02  0.25126700000E+02 0. -1.
      622    2    1    2    0    0 -0.31357424400E-01 -0.15963887858E+00  0.99597897339E+01  0.99617675843E+01  0.11372774325E+00 0.  0.
       11    1    1    2    0    0 -0.93847572305E-02 -0.53729249441E-02  0.20376286671E+01  0.20376574267E+01  0.51109989000E-03 0.  1.
     -623    1    1    2    0    0  0.40742181631E-01  0.16501180353E+00  0.25815880289E-02  0.25127274989E+02  0.25126700000E+02 0. -1.
     -611    1    3    3    0    0 -0.36517592812E-01 -0.39168415458E-02  0.12526427539E+01  0.12532209482E+01  0.10000000000E-01 0.  1.
      611    1    3    3    0    0  0.51601684122E-02 -0.15572203704E+00  0.87071469800E+01  0.87085466361E+01  0.10000000000E-01 0. -1.
</event>
<event>
 7   0  0.6206631E-02  0.9118800E+02  0.7818608E-02  0.1180000E+00
       11   -1    0    0    0    0  0.00000000000E+00  0.00000000000E+00  0.11999999989E+02  0.12000000000E+02  0.51109989000E-03 0. -1.
     -623   -1    0    0    0    0  0.00000000000E+00  0.00000000000E+00  0.42561509872E-11  0.25126700000E+02  0.25126700000E+02 0. -1.
      622    2    1    2    0    0  0.16984086635E-01  0.69106178883E-02  0.11492093222E+02  0.11492668749E+02  0.11354349044E+00 0.  0.
       11    1    1    2    0    0 -0.12149331604E-01  0.24096482172E-01  0.50659310267E+00  0.50731161982E+00  0.51109989000E-03 0. -1.
     -623    1    1    2    0    0 -0.48347550307E-02 -0.31007100060E-01  0.13136641097E-02  0.25126719631E+02  0.25126700000E+02 0. -1.
     -611    1    3    3    0    0  0.11426546485E-01 -0.21883702043E-01  0.66754794618E+00  0.66807912916E+00  0.10000000000E-01 0. -1.
      611    1    3    3    0    0  0.55575401497E-02  0.28794319931E-01  0.10824545276E+02  0.10824589620E+02  0.10000000000E-01 0. -1.
</event>
<event>
 7   0  0.6206631E-02  0.9118800E+02  0.7818608E-02  0.1180000E+00
       11   -1    0    0    0    0  0.00000000000E+00  0.00000000000E+00  0.11999999989E+02  0.12000000000E+02  0.51109989000E-03 0. -1.
     -623   -1    0    0    0    0  0.00000000000E+00  0.00000000000E+00  0.42561509872E-11  0.25126700000E+02  0.25126700000E+02 0.  1.
      622    2    1    2    0    0 -0.12064669012E-01 -0.31937372322E-02  0.11800844363E+02  0.11801146007E+02  0.83448447678E-01 0.  0.
       11    1    1    2    0    0  0.18934762317E-02  0.15663106441E-01  0.19822127796E+00  0.19884882302E+00  0.51109989000E-03 0. -1.
     -623    1    1    2    0    0  0.10171192780E-01 -0.12469369209E-01  0.93434823579E-03  0.25126705170E+02  0.25126700000E+02 0.  1.
     -611    1    3    3    0    0  0.27241452828E-01  0.21486179580E-01  0.43136199010E+01  0.43137710189E+01  0.10000000000E-01 0.  1.
      611    1    3    3    0    0 -0.39306121840E-01 -0.24679916812E-01  0.74872244619E+01  0.74873749881E+01  0.10000000000E-01 0. -1.
</event>
<event>
 7   0  0.6206631E-02  0.9118800E+02  0.7818608E-02  0.1180000E+00
       11   -1    0    0    0    0  0.00000000000E+00  0.00000000000E+00  0.11999999989E+02  0.12000000000E+02  0.51109989000E-03 0. -1.
     -623   -1    0    0    0    0  0.00000000000E+00  0.00000000000E+00  0.42561509872E-11  0.25126700000E+02  0.25126700000E+02 0. -1.
      622    2    1    2    0    0 -0.49266558107E-01  0.51043654904E-01  0.47094375333E+01  0.47109970012E+01  0.98276226742E-01 0.  0.
       11    1    1    2    0    0  0.74962848189E-01 -0.55117102072E-01  0.72883955306E+01  0.72889894358E+01  0.51109989000E-03 0. -1.
     -623    1    1    2    0    0 -0.25696290081E-01  0.40734471675E-02  0.21669252320E-02  0.25126713563E+02  0.25126700000E+02 0. -1.
     -611    1    3    3    0    0 -0.39172312518E-01  0.33262042219E-01  0.45036902867E+01  0.45039945639E+01  0.10000000000E-01 0.  1.
      611    1    3    3    0    0 -0.10094245590E-01  0.17781612685E-01  0.20574724663E+00  0.20700243728E+00  0.10000000000E-01 0. -1.
</event>
<event>
 7   0  0.6206631E-02  0.9118800E+02  0.7818608E-02  0.1180000E+00
       11   -1    0    0    0    0  0.00000000000E+00  0.00000000000E+00  0.11999999989E+02  0.12000000000E+02  0.51109989000E-03 0. -1.
     -623   -1    0    0    0    0  0.00000000000E+00  0.00000000000E+00  0.42561509872E-11  0.25126700000E+02  0.25126700000E+02 0. -1.
      622    2    1    2    0    0 -0.11658471733E-02 -0.49890236429E-02  0.11817040662E+02  0.11817465350E+02  0.10005518972E+00 0.  0.
       11    1    1    2    0    0  0.33996783570E-03  0.42127561480E-02  0.18248496768E+00  0.18253462013E+00  0.51109989000E-03 0. -1.
     -623    1    1    2    0    0  0.82587933760E-03  0.77626749489E-03  0.47435958521E-03  0.25126700030E+02  0.25126700000E+02 0. -1.
     -611    1    3    3    0    0 -0.33508202335E-01  0.26467105637E-01  0.31965609854E+01  0.31968618113E+01  0.10000000000E-01 0.  1.
      611    1    3    3    0    0  0.32342355162E-01 -0.31456129280E-01  0.86204796765E+01  0.86206035385E+01  0.10000000000E-01 0. -1.
</event>
<event>
 7   0  0.6206631E-02  0.9118800E+02  0.7818608E-02  0.1180000E+00
       11   -1    0    0    0    0  0.00000000000E+00  0.00000000000E+00  0.11999999989E+02  0.12000000000E+02  0.51109989000E-03 0. -1.
     -623   -1    0    0    0    0  0.00000000000E+00  0.00000000000E+00  0.42561509872E-11  0.25126700000E+02  0.25126700000E+02 0. -1.
      622    2    1    2    0    0 -0.81595999718E-02  0.10448947598E-01  0.11984345544E+02  0.11985749040E+02  0.18293762925E+00 0.  0.
       11    1    1    2    0    0 -0.45175597767E-02  0.30352691257E-02  0.13153313763E-01  0.14244019485E-01  0.51109989000E-03 0. -1.
     -623    1    1    2    0    0  0.12677159748E-01 -0.13484216724E-01  0.25011316312E-02  0.25126706941E+02  0.25126700000E+02 0. -1.
     -611    1    3    3    0    0  0.77851788997E-01 -0.18225834968E-01  0.77625748585E+01  0.77629930772E+01  0.10000000000E-01 0. -1.
      611    1    3    3    0    0 -0.86011388969E-01  0.28674782566E-01  0.42217706852E+01  0.42227559627E+01  0.10000000000E-01 0.  1.
</event>
<event>
 7   0  0.6206631E-02  0.9118800E+02  0.7818608E-02  0.1180000E+00
       11   -1    0    0    0    0  0.00000000000E+00  0.00000000000E+00  0.11999999989E+02  0.12000000000E+02  0.51109989000E-03 0. -1.
     -623   -1    0    0    0    0  0.00000000000E+00  0.00000000000E+00  0.42561509872E-11  0.25126700000E+02  0.25126700000E+02 0.  1.
      622    2    1    2    0    0  0.10906078326E-01 -0.41216010910E-02  0.11778901693E+02  0.11779199167E+02  0.82897565618E-01 0.  0.
       11    1    1    2    0    0 -0.66265448761E-02 -0.47792530499E-02  0.22064708288E+00  0.22079888759E+00  0.51109989000E-03 0. -1.
     -623    1    1    2    0    0 -0.42795334498E-02  0.89008541409E-02  0.45121343746E-03  0.25126701945E+02  0.25126700000E+02 0.  1.
     -611    1    3    3    0    0  0.37796909706E-01 -0.65514114219E-02  0.98768805915E+01  0.98769601470E+01  0.10000000000E-01 0. -1.
      611    1    3    3    0    0 -0.26890831380E-01  0.24298103309E-02  0.19020211014E+01  0.19022390204E+01  0.10000000000E-01 0.  1.
</event>
<event>
 7   0  0.6206631E-02  0.9118800E+02  0.7818608E-02  0.1180000E+00
       11   -1    0    0    0    0  0.00000000000E+00  0.00000000000E+00  0.11999999989E+02  0.12000000000E+02  0.51109989000E-03 0. -1.
     -623   -1    0    0    0    0  0.00000000000E+00  0.00000000000E+00  0.42561509872E-11  0.25126700000E+02  0.25126700000E+02 0.  1.
      622    2    1    2    0    0  0.61895961632E-02  0.36195776324E-02  0.11916210952E+02  0.11917672913E+02  0.18652826280E+00 0.  0.
       11    1    1    2    0    0 -0.55487461785E-02 -0.54931697573E-02  0.81954259485E-01  0.82326941939E-01  0.51109989000E-03 0. -1.
     -623    1    1    2    0    0 -0.64084998467E-03  0.18735921249E-02  0.18347774444E-02  0.25126700145E+02  0.25126700000E+02 0.  1.
     -611    1    3    3    0    0 -0.88095108403E-01  0.13464921985E-01  0.49857102315E+01  0.49865166765E+01  0.10000000000E-01 0.  1.
      611    1    3    3    0    0  0.94284704566E-01 -0.98453443525E-02  0.69305007207E+01  0.69311562366E+01  0.10000000000E-01 0. -1.
</event>
<event>
 7   0  0.6206631E-02  0.9118800E+02  0.7818608E-02  0.1180000E+00
       11   -1    0    0    0    0  0.00000000000E+00  0.00000000000E+00  0.11999999989E+02  0.12000000000E+02  0.51109989000E-03 0. -1.
     -623   -1    0    0    0    0  0.00000000000E+00  0.00000000000E+00  0.42561509872E-11  0.25126700000E+02  0.25126700000E+02 0.  1.
      622    2    1    2    0    0  0.11810427359E-01  0.34975697401E-02  0.11802228903E+02  0.11802980812E+02  0.13265464630E+00 0.  0.
       11    1    1    2    0    0 -0.50122839800E-02 -0.11330266263E-01  0.19662641597E+00  0.19701702111E+00  0.51109989000E-03 0. -1.
     -623    1    1    2    0    0 -0.67981433786E-02  0.78326965232E-02  0.11446699977E-02  0.25126702167E+02  0.25126700000E+02 0.  1.
     -611    1    3    3    0    0 -0.12092452262E-01 -0.54999148773E-01  0.31780575010E+01  0.31785721029E+01  0.10000000000E-01 0.  1.
      611    1    3    3    0    0  0.23902879621E-01  0.58496718514E-01  0.86241714022E+01  0.86244087095E+01  0.10000000000E-01 0. -1.
</event>
<event>
 7   0  0.6206631E-02  0.9118800E+02  0.7818608E-02  0.1180000E+00
       11   -1    0    0    0    0  0.00000000000E+00  0.00000000000E+00  0.11999999989E+02  0.12000000000E+02  0.51109989000E-03 0. -1.
     -623   -1    0    0    0    0  0.00000000000E+00  0.00000000000E+00  0.42561509872E-11  0.25126700000E+02  0.25126700000E+02 0. -1.
      622    2    1    2    0    0 -0.35995317197E-01 -0.23037167372E-01  0.85670397174E+01  0.85678002513E+01  0.10585487240E+00 0.  0.
       11    1    1    2    0    0  0.99025195922E-02  0.25491440335E-01  0.34320770754E+01  0.34321860652E+01  0.51109989000E-03 0. -1.
     -623    1    1    2    0    0  0.26092797605E-01 -0.24542729626E-02  0.88319629250E-03  0.25126713683E+02  0.25126700000E+02 0. -1.
     -611    1    3    3    0    0 -0.42670594797E-02  0.29064458015E-01  0.94400102133E+00  0.94451092042E+00  0.10000000000E-01 0.  1.
      611    1    3    3    0    0 -0.31728257717E-01 -0.52101625387E-01  0.76230386960E+01  0.76232893309E+01  0.10000000000E-01 0. -1.
</event>
<event>
 7   0  0.6206631E-02  0.9118800E+02  0.7818608E-02  0.1180000E+00
       11   -1    0    0    0    0  0.00000000000E+00  0.00000000000E+00  0.11999999989E+02  0.12000000000E+02  0.51109989000E-03 0.  1.
     -623   -1    0    0    0    0  0.00000000000E+00  0.00000000000E+00  0.42561509872E-11  0.25126700000E+02  0.25126700000E+02 0.  1.
      622    2    1    2    0    0 -0.30269920967E-01  0.20683422244E-01  0.11736581863E+02  0.11737028966E+02  0.95661155404E-01 0.  0.
       11    1    1    2    0    0  0.22910154098E-01 -0.21152578737E-01  0.26111409782E+00  0.26296984628E+00  0.51109989000E-03 0.  1.
     -623    1    1    2    0    0  0.73597668689E-02  0.46915649323E-03  0.23040287484E-02  0.25126701188E+02  0.25126700000E+02 0.  1.
     -611    1    3    3    0    0  0.31857528177E-01  0.20592618665E-01  0.49432313234E+01  0.49433869841E+01  0.10000000000E-01 0.  1.
      611    1    3    3    0    0 -0.62127449144E-01  0.90803578893E-04  0.67933505392E+01  0.67936419817E+01  0.10000000000E-01 0. -1.
</event>
<event>
 7   0  0.6206631E-02  0.9118800E+02  0.7818608E-02  0.1180000E+00
       11   -1    0    0    0    0  0.00000000000E+00  0.00000000000E+00  0.11999999989E+02  0.12000000000E+02  0.51109989000E-03 0. -1.
     -623   -1    0    0    0    0  0.00000000000E+00  0.00000000000E+00  0.42561509872E-11  0.25126700000E+02  0.25126700000E+02 0.  1.
      622    2    1    2    0    0 -0.25820623391E-02  0.39141220065E-02  0.11981349895E+02  0.11981672671E+02  0.87821950083E-01 0.  0.
       11    1    1    2    0    0  0.17804175639E-02 -0.39914566596E-02  0.17791209807E-01  0.18327301562E-01  0.51109989000E-03 0. -1.
     -623    1    1    2    0    0  0.80164477529E-03  0.77334653056E-04  0.85888419937E-03  0.25126700028E+02  0.25126700000E+02 0.  1.
     -611    1    3    3    0    0 -0.33552286016E-01  0.45581033106E-02  0.23263143641E+01  0.23265822687E+01  0.10000000000E-01 0.  1.
      611    1    3    3    0    0  0.30970223677E-01 -0.64398130406E-03  0.96550355310E+01  0.96550904021E+01  0.10000000000E-01 0. -1.
</event>
<event>
 7   0  0.6206631E-02  0.9118800E+02  0.7818608E-02  0.1180000E+00
       11   -1    0    0    0    0  0.00000000000E+00  0.00000000000E+00  0.11999999989E+02  0.12000000000E+02  0.51109989000E-03 0. -1.
     -623   -1    0    0    0    0  0.00000000000E+00  0.00000000000E+00  0.42561509872E-11  0.25126700000E+02  0.25126700000E+02 0.  1.
      622    2    1    2    0    0 -0.61487307448E-02  0.36754381688E-02  0.11923406138E+02  0.11923453207E+02  0.32728373133E-01 0.  0.
       11    1    1    2    0    0  0.86610365601E-02 -0.10340228925E-01  0.75346247737E-01  0.76545752069E-01  0.51109989000E-03 0. -1.
     -623    1    1    2    0    0 -0.25123058153E-02  0.66647907567E-02  0.12476035312E-02  0.25126701040E+02  0.25126700000E+02 0.  1.
     -611    1    3    3    0    0  0.37248139849E-02  0.12535547536E-01  0.68849000532E+01  0.68849197349E+01  0.10000000000E-01 0. -1.
      611    1    3    3    0    0 -0.98735447297E-02 -0.88601093670E-02  0.50385060846E+01  0.50385334725E+01  0.10000000000E-01 0.  1.
</event>
<event>
 7   0  0.6206631E-02  0.9118800E+02  0.7818608E-02  0.1180000E+00
       11   -1    0    0    0    0  0.00000000000E+00  0.00000000000E+00  0.11999999989E+02  0.12000000000E+02  0.51109989000E-03 0. -1.
     -623   -1    0    0    0    0  0.00000000000E+00  0.00000000000E+00  0.42561509872E-11  0.25126700000E+02  0.25126700000E+02 0.  1.
      622    2    1    2    0    0 -0.13606675050E-01  0.29285760689E-01  0.11697052250E+02  0.11697552841E+02  0.10328765751E+00 0.  0.
       11    1    1    2    0    0  0.32944773414E-01 -0.18691800162E-01  0.30005554224E+00  0.30243731771E+00  0.51109989000E-03 0. -1.
     -623    1    1    2    0    0 -0.19338098364E-01 -0.10593960527E-01  0.28921972616E-02  0.25126709841E+02  0.25126700000E+02 0.  1.
     -611    1    3    3    0    0 -0.14662798405E-01  0.25298920015E-02  0.10856403682E+02  0.10856418485E+02  0.10000000000E-01 0. -1.
      611    1    3    3    0    0  0.10561233556E-02  0.26755868688E-01  0.84064856723E+00  0.84113435639E+00  0.10000000000E-01 0.  1.
</event>
<event>
 7   0  0.6206631E-02  0.9118800E+02  0.7818608E-02  0.1180000E+00
       11   -1    0    0    0    0  0.00000000000E+00  0.00000000000E+00  0.11999999989E+02  0.12000000000E+02  0.51109989000E-03 0.  1.
     -623   -1    0    0    0    0  0.00000000000E+00  0.00000000000E+00  0.42561509872E-11  0.25126700000E+02  0.25126700000E+02 0. -1.
      622    2    1    2    0    0  0.37893014460E-02 -0.10620905321E-02  0.11977038952E+02  0.11977368678E+02  0.88785677489E-01 0.  0.
       11    1    1    2    0    0  0.59627587429E-02  0.37091465417E-02  0.21506031108E-01  0.22629247823E-01  0.51109989000E-03 0.  1.
     -623    1    1    2    0    0 -0.97520601889E-02 -0.26470560096E-02  0.14550055370E-02  0.25126702074E+02  0.25126700000E+02 0. -1.
     -611    1    3    3    0    0 -0.50072614677E-02 -0.52467435181E-02  0.11675689949E+02  0.11675696484E+02  0.10000000000E-01 0.  1.
      611    1    3    3    0    0  0.87965629136E-02  0.41846529860E-02  0.30134900313E+00  0.30167219383E+00  0.10000000000E-01 0. -1.
</event>
<event>
 7   0  0.6206631E-02  0.9118800E+02  0.7818608E-02  0.1180000E+00
       11   -1    0    0    0    0  0.00000000000E+00  0.00000000000E+00  0.11999999989E+02  0.12000000000E+02  0.51109989000E-03 0.  1.
     -623   -1    0    0    0    0  0.00000000000E+00  0.00000000000E+00  0.42561509872E-11  0.25126700000E+02  0.25126700000E+02 0. -1.
      622    2    1    2    0    0 -0.61883178413E-01  0.48644902909E-01  0.60134524136E+01  0.60148217950E+01  0.10136784884E+00 0.  0.
       11    1    1    2    0    0  0.87416926445E-01 -0.77818577370E-01  0.59840037484E+01  0.59851481663E+01  0.51109989000E-03 0.  1.
     -623    1    1    2    0    0 -0.25533748032E-01  0.29173674461E-01  0.25438270725E-02  0.25126730039E+02  0.25126700000E+02 0. -1.
     -611    1    3    3    0    0 -0.87207120428E-01  0.24426891863E-01  0.39788418174E+01  0.39798849182E+01  0.10000000000E-01 0.  1.
      611    1    3    3    0    0  0.25323942015E-01  0.24218011046E-01  0.20346105963E+01  0.20349368768E+01  0.10000000000E-01 0. -1.
</event>
<event>
 7   0  0.6206631E-02  0.9118800E+02  0.7818608E-02  0.1180000E+00
       11   -1    0    0    0    0  0.00000000000E+00  0.00000000000E+00  0.11999999989E+02  0.12000000000E+02  0.51109989000E-03 0. -1.
     -623   -1    0    0    0    0  0.00000000000E+00  0.00000000000E+00  0.42561509872E-11  0.25126700000E+02  0.25126700000E+02 0.  1.
      622    2    1    2    0    0 -0.28646001258E-02 -0.51791726121E-02  0.11824219822E+02  0.11824897549E+02  0.12646189988E+00 0.  0.
       11    1    1    2    0    0  0.22662177609E-02  0.43044059590E-02  0.17503408757E+00  0.17510241771E+00  0.51109989000E-03 0. -1.
     -623    1    1    2    0    0  0.59838236488E-03  0.87476665311E-03  0.74607954236E-03  0.25126700033E+02  0.25126700000E+02 0.  1.
     -611    1    3    3    0    0 -0.52784776779E-01 -0.24801345037E-01  0.35102981817E+01  0.35107968702E+01  0.10000000000E-01 0.  1.
      611    1    3    3    0    0  0.49920176654E-01  0.19622172424E-01  0.83139216403E+01  0.83141006786E+01  0.10000000000E-01 0. -1.
</event>
<event>
 7   0  0.6206631E-02  0.9118800E+02  0.7818608E-02  0.1180000E+00
       11   -1    0    0    0    0  0.00000000000E+00  0.00000000000E+00  0.11999999989E+02  0.12000000000E+02  0.51109989000E-03 0. -1.
     -623   -1    0    0    0    0  0.00000000000E+00  0.00000000000E+00  0.42561509872E-11  0.25126700000E+02  0.25126700000E+02 0.  1.
      622    2    1    2    0    0  0.17955221349E-03 -0.27143170183E-02  0.11969057712E+02  0.11969581310E+02  0.11192326693E+00 0.  0.
       11    1    1    2    0    0 -0.12751839525E-02  0.26288977315E-02  0.30273689848E-01  0.30418657392E-01  0.51109989000E-03 0. -1.
     -623    1    1    2    0    0  0.10956317390E-02  0.85419286703E-04  0.66858733749E-03  0.25126700033E+02  0.25126700000E+02 0.  1.
     -611    1    3    3    0    0 -0.23892977952E-01  0.62894615011E-02  0.11196179879E+02  0.11196211606E+02  0.10000000000E-01 0. -1.
      611    1    3    3    0    0  0.24072530165E-01 -0.90037785193E-02  0.77287783267E+00  0.77336970393E+00  0.10000000000E-01 0.  1.
</event>
<event>
 7   0  0.6206631E-02  0.9118800E+02  0.7818608E-02  0.1180000E+00
       11   -1    0    0    0    0  0.00000000000E+00  0.00000000000E+00  0.11999999989E+02  0.12000000000E+02  0.51109989000E-03 0.  1.
     -623   -1    0    0    0    0  0.00000000000E+00  0.00000000000E+00  0.42561509872E-11  0.25126700000E+02  0.25126700000E+02 0. -1.
      622    2    1    2    0    0 -0.11159934959E-02  0.31421706227E-02  0.11948879333E+02  0.11948938009E+02  0.37297485984E-01 0.  0.
       11    1    1    2    0    0  0.15762094363E-02  0.19838440918E-02  0.50995997680E-01  0.51061463709E-01  0.51109989000E-03 0.  1.
     -623    1    1    2    0    0 -0.46021594047E-03 -0.51260147145E-02  0.12465824240E-03  0.25126700527E+02  0.25126700000E+02 0. -1.
     -611    1    3    3    0    0  0.14614282589E-01  0.32930508758E-02  0.70999860816E+01  0.71000089282E+01  0.10000000000E-01 0.  1.
      611    1    3    3    0    0 -0.15730276085E-01 -0.15088025310E-03  0.48488932516E+01  0.48489290807E+01  0.10000000000E-01 0.  1.
</event>
<event>
 7   0  0.6206631E-02  0.9118800E+02  0.7818608E-02  0.1180000E+00
       11   -1    0    0    0    0  0.00000000000E+00  0.00000000000E+00  0.11999999989E+02  0.12000000000E+02  0.51109989000E-03 0.  1.
     -623   -1    0    0    0    0  0.00000000000E+00  0.00000000000E+00  0.42561509872E-11  0.25126700000E+02  0.25126700000E+02 0.  1.
      622    2    1    2    0    0  0.91383517350E-02 -0.62431114238E-02  0.11977106010E+02  0.11977431269E+02  0.87572511442E-01 0.  0.
       11    1    1    2    0    0 -0.63568873269E-02  0.92956369830E-02  0.19551013906E-01  0.22568168984E-01  0.51109989000E-03 0.  1.
     -623    1    1    2    0    0 -0.27814644081E-02 -0.30525255592E-02  0.33429650248E-02  0.25126700562E+02  0.25126700000E+02 0.  1.
     -611    1    3    3    0    0 -0.16666040832E-01  0.23976768732E-01  0.88867884988E+01  0.88868420975E+01  0.10000000000E-01 0.  1.
      611    1    3    3    0    0  0.25804392567E-01 -0.30219880156E-01  0.30903175113E+01  0.30905891718E+01  0.10000000000E-01 0. -1.
</event>
<event>
 7   0  0.6206631E-02  0.9118800E+02  0.7818608E-02  0.1180000E+00
       11   -1    0    0    0    0  0.00000000000E+00  0.00000000000E+00  0.11999999989E+02  0.12000000000E+02  0.51109989000E-03 0.  1.
     -623   -1    0    0    0    0  0.00000000000E+00  0.00000000000E+00  0.42561509872E-11  0.25126700000E+02  0.25126700000E+02 0.  1.
      622    2    1    2    0    0 -0.28497433417E-01 -0.14199180868E-01  0.86141589604E+01  0.86149756465E+01  0.11426755782E+00 0.  0.
       11    1    1    2    0    0  0.21774421142E-01  0.44160808839E-01  0.33846474104E+01  0.33850055622E+01  0.51109989000E-03 0.  1.
     -623    1    1    2    0    0  0.67230122749E-02 -0.29961627971E-01  0.11936183029E-02  0.25126718791E+02  0.25126700000E+02 0.  1.
     -611    1    3    3    0    0  0.14371191056E-01 -0.54694518242E-01  0.48762740863E+01  0.48766122448E+01  0.10000000000E-01 0. -1.
      611    1    3    3    0    0 -0.42868624474E-01  0.40495337374E-01  0.37378848741E+01  0.37383634017E+01  0.10000000000E-01 0.  1.
</event>
<event>
 7   0  0.6206631E-02  0.9118800E+02  0.7818608E-02  0.1180000E+00
       11   -1    0    0    0    0  0.00000000000E+00  0.00000000000E+00  0.11999999989E+02  0.12000000000E+02  0.51109989000E-03 0.  1.
     -623   -1    0    0    0    0  0.00000000000E+00  0.00000000000E+00  0.42561509872E-11  0.25126700000E+02  0.25126700000E+02 0. -1.
      622    2    1    2    0    0  0.19490269407E-02 -0.44266960732E-02  0.11857801547E+02  0.11858684354E+02  0.14461566573E+00 0.  0.
       11    1    1    2    0    0 -0.79312198256E-03  0.48583699746E-02  0.14122890585E+00  0.14131559670E+00  0.51109989000E-03 0.  1.
     -623    1    1    2    0    0 -0.11559049581E-02 -0.43167390136E-03  0.96953620110E-03  0.25126700049E+02  0.25126700000E+02 0. -1.
     -611    1    3    3    0    0  0.18716935916E-01  0.19894437394E-01  0.11282886093E+02  0.11282923588E+02  0.10000000000E-01 0.  1.
      611    1    3    3    0    0 -0.16767908975E-01 -0.24321133467E-01  0.57491545412E+00  0.57576076602E+00  0.10000000000E-01 0. -1.
</event>
<event>
 7   0  0.6206631E-02  0.9118800E+02  0.7818608E-02  0.1180000E+00
       11   -1    0    0    0    0  0.00000000000E+00  0.00000000000E+00  0.11999999989E+02  0.12000000000E+02  0.51109989000E-03 0. -1.
     -623   -1    0    0    0    0  0.00000000000E+00  0.00000000000E+00  0.42561509872E-11  0.25126700000E+02  0.25126700000E+02 0.  1.
      622    2    1    2    0    0  0.21147210312E-01  0.82802599971E-02  0.98853378472E+01  0.98859571704E+01  0.10830075760E+00 0.  0.
       11    1    1    2    0    0 -0.85305757585E-02  0.98583804767E-03  0.21140204423E+01  0.21140379454E+01  0.51109989000E-03 0. -1.
     -623    1    1    2    0    0 -0.12616634553E-01 -0.92660980447E-02  0.64169961007E-03  0.25126704884E+02  0.25126700000E+02 0.  1.
     -611    1    3    3    0    0 -0.15562191536E-01  0.17022996404E-01  0.85774262659E+01  0.85774631046E+01  0.10000000000E-01 0. -1.
      611    1    3    3    0    0  0.36709401848E-01 -0.87427364072E-02  0.13079115813E+01  0.13084940658E+01  0.10000000000E-01 0.  1.
</event>
<event>
 7   0  0.6206631E-02  0.9118800E+02  0.7818608E-02  0.1180000E+00
       11   -1    0    0    0    0  0.00000000000E+00  0.00000000000E+00  0.11999999989E+02  0.12000000000E+02  0.51109989000E-03 0.  1.
     -623   -1    0    0    0    0  0.00000000000E+00  0.00000000000E+00  0.42561509872E-11  0.25126700000E+02  0.25126700000E+02 0. -1.
      622    2    1    2    0    0 -0.29178727316E-02  0.30695158226E-01  0.39188747469E+01  0.39196812659E+01  0.73288726127E-01 0.  0.
       11    1    1    2    0    0  0.32494808977E-02 -0.26487827543E-01  0.80802742811E+01  0.80803183652E+01  0.51109989000E-03 0.  1.
     -623    1    1    2    0    0 -0.33160816612E-03 -0.42073306829E-02  0.85096104294E-03  0.25126700369E+02  0.25126700000E+02 0. -1.
     -611    1    3    3    0    0 -0.23195015200E-01  0.12847980236E-01  0.33139209587E+01  0.33140421240E+01  0.10000000000E-01 0.  1.
      611    1    3    3    0    0  0.20277142468E-01  0.17847177990E-01  0.60495378826E+00  0.60563914190E+00  0.10000000000E-01 0. -1.
</event>
<event>
 7   0  0.6206631E-02  0.9118800E+02  0.7818608E-02  0.1180000E+00
       11   -1    0    0    0    0  0.00000000000E+00  0.00000000000E+00  0.11999999989E+02  0.12000000000E+02  0.51109989000E-03 0. -1.
     -623   -1    0    0    0    0  0.00000000000E+00  0.00000000000E+00  0.42561509872E-11  0.25126700000E+02  0.25126700000E+02 0. -1.
      622    2    1    2    0    0  0.10877505824E-02 -0.26287964238E-02  0.11957126843E+02  0.11958031397E+02  0.14705259069E+00 0.  0.
       11    1    1    2    0    0  0.56462696579E-03 -0.53472153083E-04  0.41961443979E-01  0.41968388899E-01  0.51109989000E-03 0. -1.
     -623    1    1    2    0    0 -0.16523775482E-02  0.26822685769E-02  0.91170233497E-03  0.25126700214E+02  0.25126700000E+02 0. -1.
     -611    1    3    3    0    0 -0.30950707681E-01 -0.37421297330E-01  0.10473144056E+02  0.10473261417E+02  0.10000000000E-01 0. -1.
      611    1    3    3    0    0  0.32038458264E-01  0.34792500906E-01  0.14839827873E+01  0.14847699801E+01  0.10000000000E-01 0.  1.
</event>
<event>
 7   0  0.6206631E-02  0.9118800E+02  0.7818608E-02  0.1180000E+00
       11   -1    0    0    0    0  0.00000000000E+00  0.00000000000E+00  0.11999999989E+02  0.12000000000E+02  0.51109989000E-03 0.  1.
     -623   -1    0    0    0    0  0.00000000000E+00  0.00000000000E+00  0.42561509872E-11  0.25126700000E+02  0.25126700000E+02 0. -1.
      622    2    1    2    0    0  0.46972626862E-02  0.14568168624E-02  0.11993340624E+02  0.11994449123E+02  0.16299157392E+00 0.  0.
       11    1    1    2    0    0 -0.66230992179E-03 -0.35447978877E-02  0.41881809792E-02  0.55503449928E-02  0.51109989000E-03 0.  1.
     -623    1    1    2    0    0 -0.40349527644E-02  0.20879810253E-02  0.24711843320E-02  0.25126700532E+02  0.25126700000E+02 0. -1.
     -611    1    3    3    0    0 -0.28915390868E-01  0.30461354104E-01  0.91771389934E+00  0.91872890178E+00  0.10000000000E-01 0. -1.
      611    1    3    3    0    0  0.33612653554E-01 -0.29004537242E-01  0.11075626724E+02  0.11075720221E+02  0.10000000000E-01 0.  1.
</event>
<event>
 7   0  0.6206631E-02  0.9118800E+02  0.7818608E-02  0.1180000E+00
       11   -1    0    0    0    0  0.00000000000E+00  0.00000000000E+00  0.11999999989E+02  0.12000000000E+02  0.51109989000E-03 0.  1.
     -623   -1    0    0    0    0  0.00000000000E+00  0.00000000000E+00  0.42561509872E-11  0.25126700000E+02  0.25126700000E+02 0. -1.
      622    2    1    2    0    0 -0.11579456584E-01  0.72190414381E-02  0.84793782358E+01  0.84796000162E+01  0.59791069291E-01 0.  0.
       11    1    1    2    0    0  0.10421281021E-01 -0.62874978674E-02  0.35203788618E+01  0.35203999386E+01  0.51109989000E-03 0.  1.
     -623    1    1    2    0    0  0.11581755634E-02 -0.93154357063E-03  0.24289151496E-03  0.25126700045E+02  0.25126700000E+02 0. -1.
     -611    1    3    3    0    0  0.14398998353E-01  0.17622433178E-01  0.20125564280E+01  0.20127099287E+01  0.10000000000E-01 0.  1.
      611    1    3    3    0    0 -0.25978454937E-01 -0.10403391740E-01  0.64668218077E+01  0.64668900875E+01  0.10000000000E-01 0.  1.
</event>
<event>
 7   0  0.6206631E-02  0.9118800E+02  0.7818608E-02  0.1180000E+00
       11   -1    0    0    0    0  0.00000000000E+00  0.00000000000E+00  0.11999999989E+02  0.12000000000E+02  0.51109989000E-03 0. -1.
     -623   -1    0    0    0    0  0.00000000000E+00  0.00000000000E+00  0.42561509872E-11  0.25126700000E+02  0.25126700000E+02 0. -1.
      622    2    1    2    0    0 -0.70267654031E-02 -0.14758755540E-01  0.11638828600E+02  0.11639079048E+02  0.74583502891E-01 0.  0.
       11    1    1    2    0    0  0.83577691995E-02  0.15556414315E-01  0.36048824782E+00  0.36092089489E+00  0.51109989000E-03 0. -1.
     -623    1    1    2    0    0 -0.13310037965E-02 -0.79765877435E-03  0.68314095650E-03  0.25126700057E+02  0.25126700000E+02 0. -1.
     -611    1    3    3    0    0  0.75871351386E-02 -0.35110851933E-01  0.95945306759E+01  0.95946031303E+01  0.10000000000E-01 0. -1.
      611    1    3    3    0    0 -0.14613900542E-01  0.20352096392E-01  0.20442979244E+01  0.20444759176E+01  0.10000000000E-01 0.  1.
</event>
<event>
 7   0  0.6206631E-02  0.9118800E+02  0.7818608E-02  0.1180000E+00
       11   -1    0    0    0    0  0.00000000000E+00  0.00000000000E+00  0.11999999989E+02  0.12000000000E+02  0.51109989000E-03 0. -1.
     -623   -1    0    0    0    0  0.00000000000E+00  0.00000000000E+00  0.42561509872E-11  0.25126700000E+02  0.25126700000E+02 0. -1.
      622    2    1    2    0    0  0.21161543662E-02  0.50910185402E-02  0.11964200708E+02  0.11964708360E+02  0.11007805071E+00 0.  0.
       11    1    1    2    0    0 -0.52692852367E-02 -0.68905804422E-02  0.34204839837E-01  0.35291326939E-01  0.51109989000E-03 0. -1.
     -623    1    1    2    0    0  0.31531308705E-02  0.17995619020E-02  0.15944417332E-02  0.25126700313E+02  0.25126700000E+02 0. -1.
     -611    1    3    3    0    0 -0.24609407302E-01  0.50180296411E-01  0.63930093172E+01  0.63932614380E+01  0.10000000000E-01 0. -1.
      611    1    3    3    0    0  0.26725561669E-01 -0.45089277870E-01  0.55711913904E+01  0.55714469222E+01  0.10000000000E-01 0.  1.
</event>
<event>
 7   0  0.6206631E-02  0.9118800E+02  0.7818608E-02  0.1180000E+00
       11   -1    0    0    0    0  0.00000000000E+00  0.00000000000E+00  0.11999999989E+02  0.12000000000E+02  0.51109989000E-03 0.  1.
     -623   -1    0    0    0    0  0.00000000000E+00  0.00000000000E+00  0.42561509872E-11  0.25126700000E+02  0.25126700000E+02 0.  1.
      622    2    1    2    0    0 -0.31455159438E-02  0.19222317692E-01  0.11804503501E+02  0.11804998766E+02  0.10636524347E+00 0.  0.
       11    1    1    2    0    0  0.15521251978E-01 -0.11150048287E-01  0.19405740568E+00  0.19499684808E+00  0.51109989000E-03 0.  1.
     -623    1    1    2    0    0 -0.12375736034E-01 -0.80722694050E-02  0.14390819806E-02  0.25126704386E+02  0.25126700000E+02 0.  1.
     -611    1    3    3    0    0 -0.14137197532E-01 -0.40058610065E-01  0.35337611396E+01  0.35340306089E+01  0.10000000000E-01 0. -1.
      611    1    3    3    0    0  0.10991681588E-01  0.59280927757E-01  0.82707423618E+01  0.82709681574E+01  0.10000000000E-01 0.  1.
</event>
<event>
 7   0  0.6206631E-02  0.9118800E+02  0.7818608E-02  0.1180000E+00
       11   -1    0    0    0    0  0.00000000000E+00  0.00000000000E+00  0.11999999989E+02  0.12000000000E+02  0.51109989000E-03 0.  1.
     -623   -1    0    0    0    0  0.00000000000E+00  0.00000000000E+00  0.42561509872E-11  0.25126700000E+02  0.25126700000E+02 0.  1.
      622    2    1    2    0    0 -0.65815786235E-02 -0.38004587282E-02  0.11773206739E+02  0.11773588620E+02  0.94521450449E-01 0.  0.
       11    1    1    2    0    0  0.54503223468E-02  0.50567511196E-02  0.22628863674E+00  0.22641131837E+00  0.51109989000E-03 0.  1.
     -623    1    1    2    0    0  0.11312562767E-02 -0.12562923914E-02  0.50461332868E-03  0.25126700062E+02  0.25126700000E+02 0.  1.
     -611    1    3    3    0    0 -0.93425609683E-02 -0.43881888776E-01  0.84333711555E+01  0.84334964249E+01  0.10000000000E-01 0.  1.
      611    1    3    3    0    0  0.27609823447E-02  0.40081430047E-01  0.33398355836E+01  0.33400921948E+01  0.10000000000E-01 0. -1.
</event>
<event>
 7   0  0.6206631E-02  0.9118800E+02  0.7818608E-02  0.1180000E+00
       11   -1    0    0    0    0  0.00000000000E+00  0.00000000000E+00  0.11999999989E+02  0.12000000000E+02  0.51109989000E-03 0. -1.
     -623   -1    0    0    0    0  0.00000000000E+00  0.00000000000E+00  0.42561509872E-11  0.25126700000E+02  0.25126700000E+02 0.  1.
      622    2    1    2    0    0 -0.87604864179E-02 -0.16411033635E-02  0.11913908322E+02  0.11914401969E+02  0.10808943393E+00 0.  0.
       11    1    1    2    0    0  0.75912069629E-02 -0.20158853642E-02  0.85235079420E-01  0.85597723123E-01  0.51109989000E-03 0. -1.
     -623    1    1    2    0    0  0.11692794550E-02  0.36569887277E-02  0.85658738239E-03  0.25126700308E+02  0.25126700000E+02 0.  1.
     -611    1    3    3    0    0  0.26257535762E-02  0.51130937331E-01  0.67573785779E+01  0.67575799302E+01  0.10000000000E-01 0.  1.
      611    1    3    3    0    0 -0.11386239994E-01 -0.52772040694E-01  0.51565297444E+01  0.51568220387E+01  0.10000000000E-01 0. -1.
</event>
<event>
 7   0  0.6206631E-02  0.9118800E+02  0.7818608E-02  0.1180000E+00
       11   -1    0    0    0    0  0.00000000000E+00  0.00000000000E+00  0.11999999989E+02  0.12000000000E+02  0.51109989000E-03 0. -1.
     -623   -1    0    0    0    0  0.00000000000E+00  0.00000000000E+00  0.42561509872E-11  0.25126700000E+02  0.25126700000E+02 0.  1.
      622    2    1    2    0    0  0.19284209743E-01 -0.10946475918E+00  0.90421145161E+01  0.90432577214E+01  0.91218860580E-01 0.  0.
       11    1    1    2    0    0 -0.30731567621E-01  0.11052956205E+00  0.29545129100E+01  0.29567394220E+01  0.51109989000E-03 0. -1.
     -623    1    1    2    0    0  0.11447357878E-01 -0.10648028698E-02  0.33725630708E-02  0.25126702857E+02  0.25126700000E+02 0.  1.
     -611    1    3    3    0    0  0.13106807154E-01 -0.12025373477E+00  0.67760085520E+01  0.67770955907E+01  0.10000000000E-01 0. -1.
      611    1    3    3    0    0  0.61774025889E-02  0.10788975590E-01  0.22661059641E+01  0.22661621307E+01  0.10000000000E-01 0.  1.
</event>
<event>
 6   0  0.6206631E-02  0.9118800E+02  0.7818608E-02  0.1180000E+00
       11   -1    0    0    0    0  0.00000000000E+00  0.00000000000E+00  0.11999999989E+02  0.12000000000E+02  0.51109989000E-03 0. -1.
     -623   -1    0    0    0    0  0.00000000000E+00  0.00000000000E+00  0.42561509872E-11  0.25126700000E+02  0.25126700000E+02 0. -1.
       11    1    1    2    0    0 -0.15898043282E-01  0.16883909924E-01  0.34440856845E+00  0.34518884316E+00  0.51109989000E-03 0. -1.
     -623    1    1    2    0    0  0.88906964449E-02  0.53826100564E-02  0.28610054167E-02  0.25126702312E+02  0.25126700000E+02 0. -1.
     -611    1    1    2    0    0 -0.84063023840E-01 -0.70721408136E-01  0.73648558644E+01  0.73656819109E+01  0.10000000000E-01 0. -1.
      611    1    1    2    0    0  0.91070370677E-01  0.48454888156E-01  0.42878745508E+01  0.42891269336E+01  0.10000000000E-01 0.  1.
</event>
<event>
 7   0  0.6206631E-02  0.9118800E+02  0.7818608E-02  0.1180000E+00
       11   -1    0    0    0    0  0.00000000000E+00  0.00000000000E+00  0.11999999989E+02  0.12000000000E+02  0.51109989000E-03 0. -1.
     -623   -1    0    0    0    0  0.00000000000E+00  0.00000000000E+00  0.42561509872E-11  0.25126700000E+02  0.25126700000E+02 0.  1.
      622    2    1    2    0    0 -0.12206754774E-01  0.84924350919E-02  0.11959399994E+02  0.11960064047E+02  0.12515050287E+00 0.  0.
       11    1    1    2    0    0  0.79864948189E-02 -0.15975750131E-01  0.35713515661E-01  0.39934009513E-01  0.51109989000E-03 0. -1.
     -623    1    1    2    0    0  0.42202599547E-02  0.74833150392E-02  0.48864791672E-02  0.25126701944E+02  0.25126700000E+02 0.  1.
     -611    1    3    3    0    0 -0.58944149664E-01  0.26211121441E-02  0.33858412554E+01  0.33863700757E+01  0.10000000000E-01 0.  1.
      611    1    3    3    0    0  0.46737394890E-01  0.58713229478E-02  0.85735587389E+01  0.85736939709E+01  0.10000000000E-01 0. -1.
</event>
<event>
 7   0  0.6206631E-02  0.9118800E+02  0.7818608E-02  0.1180000E+00
       11   -1    0    0    0    0  0.00000000000E+00  0.00000000000E+00  0.11999999989E+02  0.12000000000E+02  0.51109989000E-03 0.  1.
     -623   -1    0    0    0    0  0.00000000000E+00  0.00000000000E+00  0.42561509872E-11  0.25126700000E+02  0.25126700000E+02 0. -1.
      622    2    1    2    0    0 -0.26823152439E-02  0.24040844001E-02  0.11913360523E+02  0.11913612384E+02  0.77382901339E-01 0.  0.
       11    1    1    2    0    0  0.86839302526E-03 -0.21614495825E-02  0.86354624970E-01  0.86387547989E-01  0.51109989000E-03 0.  1.
     -623    1    1    2    0    0  0.18139222187E-02 -0.24263481757E-03  0.28484151036E-03  0.25126700068E+02  0.25126700000E+02 0. -1.
     -611    1    3    3    0    0 -0.81296028219E-02  0.31366539073E-01  0.29020023192E+01  0.29022004429E+01  0.10000000000E-01 0.  1.
      611    1    3    3    0    0  0.54472875779E-02 -0.28962454673E-01  0.90113582034E+01  0.90114119408E+01  0.10000000000E-01 0. -1.
</event>
<event>
 7   0  0.6206631E-02  0.9118800E+02  0.7818608E-02  0.1180000E+00
       11   -1    0    0    0    0  0.00000000000E+00  0.00000000000E+00  0.11999999989E+02  0.12000000000E+02  0.51109989000E-03 0. -1.
     -623   -1    0    0    0    0  0.00000000000E+00  0.00000000000E+00  0.42561509872E-11  0.25126700000E+02  0.25126700000E+02 0.  1.
      622    2    1    2    0    0 -0.28979534349E-01 -0.17928194474E-01  0.81453850012E+01  0.81461925888E+01  0.10952462197E+00 0.  0.
       11    1    1    2    0    0  0.29590151286E-01  0.16955848278E-01  0.38536564300E+01  0.38538073667E+01  0.51109989000E-03 0. -1.
     -623    1    1    2    0    0 -0.61061693740E-03  0.97234619625E-03  0.95855794721E-03  0.25126700045E+02  0.25126700000E+02 0.  1.
     -611    1    3    3    0    0  0.22418570746E-01  0.20735260584E-01  0.10106716880E+01  0.10111823794E+01  0.10000000000E-01 0.  1.
      611    1    3    3    0    0 -0.51398105094E-01 -0.38663455058E-01  0.71347133131E+01  0.71350102094E+01  0.10000000000E-01 0. -1.
</event>
<event>
 7   0  0.6206631E-02  0.9118800E+02  0.7818608E-02  0.1180000E+00
       11   -1    0    0    0    0  0.00000000000E+00  0.00000000000E+00  0.11999999989E+02  0.12000000000E+02  0.51109989000E-03 0.  1.
     -623   -1    0    0    0    0  0.00000000000E+00  0.00000000000E+00  0.42561509872E-11  0.25126700000E+02  0.25126700000E+02 0.  1.
      622    2    1    2    0    0 -0.34738838439E-04 -0.20664438403E-02  0.11994889057E+02  0.11995338563E+02  0.10382433354E+00 0.  0.
       11    1    1    2    0    0 -0.48372008411E-03  0.33974079698E-03  0.45954009434E-02  0.46613669562E-02  0.51109989000E-03 0.  1.
     -623    1    1    2    0    0  0.51845892255E-03  0.17267030434E-02  0.51553161558E-03  0.25126700070E+02  0.25126700000E+02 0.  1.
     -611    1    3    3    0    0 -0.11723180791E-01 -0.39436543712E-01  0.24633923353E+01  0.24637561713E+01  0.10000000000E-01 0.  1.
      611    1    3    3    0    0  0.11688441952E-01  0.37370099872E-01  0.95314967212E+01  0.95315823918E+01  0.10000000000E-01 0.  1.
</event>
<event>
 7   0  0.6206631E-02  0.9118800E+02  0.7818608E-02  0.1180000E+00
       11   -1    0    0    0    0  0.00000000000E+00  0.00000000000E+00  0.11999999989E+02  0.12000000000E+02  0.51109989000E-03 0.  1.
     -623   -1    0    0    0    0  0.00000000000E+00  0.00000000000E+00  0.42561509872E-11  0.25126700000E+02  0.25126700000E+02 0. -1.
      622    2    1    2    0    0 -0.75872928065E-02  0.58370986514E-02  0.11981238302E+02  0.11981989722E+02  0.13384619272E+00 0.  0.
       11    1    1    2    0    0 -0.12313857291E-02 -0.70515681063E-02  0.16516887476E-01  0.18008601239E-01  0.51109989000E-03 0.  1.
     -623    1    1    2    0    0  0.88186785356E-02  0.12144694550E-02  0.22447997637E-02  0.25126701677E+02  0.25126700000E+02 0. -1.
     -611    1    3    3    0    0  0.31756226208E-02 -0.23377659410E-01  0.46532694652E+00  0.46603193742E+00  0.10000000000E-01 0. -1.
      611    1    3    3    0    0 -0.10762915427E-01  0.29214758062E-01  0.11515911355E+02  0.11515957784E+02  0.10000000000E-01 0.  1.
</event>
<event>
 7   0  0.6206631E-02  0.9118800E+02  0.7818608E-02  0.1180000E+00
       11   -1    0    0    0    0  0.00000000000E+00  0.00000000000E+00  0.11999999989E+02  0.12000000000E+02  0.51109989000E-03 0.  1.
     -623   -1    0    0    0    0  0.00000000000E+00  0.00000000000E+00  0.42561509872E-11  0.25126700000E+02  0.25126700000E+02 0. -1.
      622    2    1    2    0    0 -0.17624061863E-02  0.28759989089E-02  0.11975866749E+02  0.11976963812E+02  0.16206909053E+00 0.  0.
       11    1    1    2    0    0 -0.67731072397E-03 -0.23796216099E-02  0.22897080411E-01  0.23036034018E-01  0.51109989000E-03 0.  1.
     -623    1    1    2    0    0  0.24397169103E-02 -0.49637729902E-03  0.12361596238E-02  0.25126700154E+02  0.25126700000E+02 0. -1.
     -611    1    3    3    0    0  0.43162354959E-01 -0.34879110480E-01  0.10090419751E+02  0.10090577303E+02  0.10000000000E-01 0.  1.
      611    1    3    3    0    0 -0.44924761145E-01  0.37755109389E-01  0.18854469978E+01  0.18863865097E+01  0.10000000000E-01 0. -1.
</event>
<event>
 7   0  0.6206631E-02  0.9118800E+02  0.7818608E-02  0.1180000E+00
       11   -1    0    0    0    0  0.00000000000E+00  0.00000000000E+00  0.11999999989E+02  0.12000000000E+02  0.51109989000E-03 0.  1.
     -623   -1    0    0    0    0  0.00000000000E+00  0.00000000000E+00  0.42561509872E-11  0.25126700000E+02  0.25126700000E+02 0. -1.
      622    2    1    2    0    0 -0.63559101119E-02  0.19069979431E-02  0.11948846225E+02  0.11949521372E+02  0.12684979113E+00 0.  0.
       11    1    1    2    0    0  0.29647198879E-02 -0.10739344541E-02  0.50377197917E-01  0.50478373512E-01  0.51109989000E-03 0.  1.
     -623    1    1    2    0    0  0.33911902240E-02 -0.83306348902E-03  0.77656605652E-03  0.25126700255E+02  0.25126700000E+02 0. -1.
     -611    1    3    3    0    0  0.11160108227E-01  0.17236526625E-02  0.11643453845E+02  0.11643463616E+02  0.10000000000E-01 0.  1.
      611    1    3    3    0    0 -0.17516018339E-01  0.18334528061E-03  0.30539237967E+00  0.30605775611E+00  0.10000000000E-01 0. -1.
</event>
<event>
 7   0  0.6206631E-02  0.9118800E+02  0.7818608E-02  0.1180000E+00
       11   -1    0    0    0    0  0.00000000000E+00  0.00000000000E+00  0.11999999989E+02  0.12000000000E+02  0.51109989000E-03 0. -1.
     -623   -1    0    0    0    0  0.00000000000E+00  0.00000000000E+00  0.42561509872E-11  0.25126700000E+02  0.25126700000E+02 0. -1.
      622    2    1    2    0    0 -0.76294928967E-01 -0.59626362676E-01  0.75094710197E+01  0.75105512905E+01  0.82761537582E-01 0.  0.
       11    1    1    2    0    0  0.78010956834E-01  0.62704771655E-01  0.44883325161E+01  0.44894483663E+01  0.51109989000E-03 0. -1.
     -623    1    1    2    0    0 -0.17160278671E-02 -0.30784089791E-02  0.21964533342E-02  0.25126700343E+02  0.25126700000E+02 0. -1.
     -611    1    3    3    0    0  0.11653350177E-01 -0.90560843766E-02  0.23835956039E+01  0.23836622697E+01  0.10000000000E-01 0. -1.
      611    1    3    3    0    0 -0.87948279143E-01 -0.50570278299E-01  0.51258754159E+01  0.51268890208E+01  0.10000000000E-01 0.  1.
</event>
<event>
 7   0  0.6206631E-02  0.9118800E+02  0.7818608E-02  0.1180000E+00
       11   -1    0    0    0    0  0.00000000000E+00  0.00000000000E+00  0.11999999989E+02  0.12000000000E+02  0.51109989000E-03 0.  1.
     -623   -1    0    0    0    0  0.00000000000E+00  0.00000000000E+00  0.42561509872E-11  0.25126700000E+02  0.25126700000E+02 0. -1.
      622    2    1    2    0    0  0.20438720578E-01 -0.20178808898E-01  0.11426414704E+02  0.11427565746E+02  0.15962755462E+00 0.  0.
       11    1    1    2    0    0 -0.44379777259E-01  0.34979497882E-01  0.56962196045E+00  0.57241817664E+00  0.51109989000E-03 0.  1.
     -623    1    1    2    0    0  0.23941056681E-01 -0.14800688984E-01  0.39633242610E-02  0.25126716077E+02  0.25126700000E+02 0. -1.
     -611    1    3    3    0    0 -0.68388644976E-01 -0.22448658583E-01  0.49207142907E+01  0.49212508653E+01  0.10000000000E-01 0. -1.
      611    1    3    3    0    0  0.88827365554E-01  0.22698496847E-02  0.65057004137E+01  0.65063148807E+01  0.10000000000E-01 0.  1.
</event>
<event>
 7   0  0.6206631E-02  0.9118800E+02  0.7818608E-02  0.1180000E+00
       11   -1    0    0    0    0  0.00000000000E+00  0.00000000000E+00  0.11999999989E+02  0.12000000000E+02  0.51109989000E-03 0.  1.
     -623   -1    0    0    0    0  0.00000000000E+00  0.00000000000E+00  0.42561509872E-11  0.25126700000E+02  0.25126700000E+02 0. -1.
      622    2    1    2    0    0  0.45608391700E-02  0.63103659248E-02  0.11957371766E+02  0.11957833601E+02  0.10480579639E+00 0.  0.
       11    1    1    2    0    0  0.11570038317E-01  0.36627920346E-02  0.40371401686E-01  0.42159140519E-01  0.51109989000E-03 0.  1.
     -623    1    1    2    0    0 -0.16130877487E-01 -0.99731579595E-02  0.22568213321E-02  0.25126707258E+02  0.25126700000E+02 0. -1.
     -611    1    3    3    0    0 -0.30050591197E-01  0.39324597467E-01  0.41180737211E+01  0.41183832550E+01  0.10000000000E-01 0. -1.
      611    1    3    3    0    0  0.34611430367E-01 -0.33014231542E-01  0.78392980450E+01  0.78394503461E+01  0.10000000000E-01 0.  1.
</event>
<event>
 7   0  0.6206631E-02  0.9118800E+02  0.7818608E-02  0.1180000E+00
       11   -1    0    0    0    0  0.00000000000E+00  0.00000000000E+00  0.11999999989E+02  0.12000000000E+02  0.51109989000E-03 0.  1.
     -623   -1    0    0    0    0  0.00000000000E+00  0.00000000000E+00  0.42561509872E-11  0.25126700000E+02  0.25126700000E+02 0.  1.
      622    2    1    2    0    0 -0.32706318512E-01  0.19174112839E-01  0.99502196260E+01  0.99508118359E+01  0.10172628794E+00 0.  0.
       11    1    1    2    0    0 -0.26606575250E-02 -0.13312298097E+00  0.20445733055E+01  0.20489043584E+01  0.51109989000E-03 0.  1.
     -623    1    1    2    0    0  0.35366976037E-01  0.11394886813E+00  0.52070576042E-02  0.25126983806E+02  0.25126700000E+02 0.  1.
     -611    1    3    3    0    0  0.91644524067E-02  0.52397423812E-01  0.47995614290E+01  0.47998666011E+01  0.10000000000E-01 0.  1.
      611    1    3    3    0    0 -0.41870770919E-01 -0.33223310974E-01  0.51506581970E+01  0.51509452348E+01  0.10000000000E-01 0. -1.
</event>
<event>
 7   0  0.6206631E-02  0.9118800E+02  0.7818608E-02  0.1180000E+00
       11   -1    0    0    0    0  0.00000000000E+00  0.00000000000E+00  0.11999999989E+02  0.12000000000E+02  0.51109989000E-03 0. -1.
     -623   -1    0    0    0    0  0.00000000000E+00  0.00000000000E+00  0.42561509872E-11  0.25126700000E+02  0.25126700000E+02 0. -1.
      622    2    1    2    0    0 -0.14990449156E-02  0.84450168201E-02  0.11858988235E+02  0.11859278857E+02  0.82580190077E-01 0.  0.
       11    1    1    2    0    0  0.62953155530E-02 -0.41134908122E-02  0.14051829670E+00  0.14072030676E+00  0.51109989000E-03 0. -1.
     -623    1    1    2    0    0 -0.47962706375E-02 -0.43315260079E-02  0.49345726916E-03  0.25126700836E+02  0.25126700000E+02 0. -1.
     -611    1    3    3    0    0 -0.20962608136E-01 -0.50719266544E-02  0.10606108722E+02  0.10606135365E+02  0.10000000000E-01 0. -1.
      611    1    3    3    0    0  0.19463563221E-01  0.13516943475E-01  0.12528795131E+01  0.12531434924E+01  0.10000000000E-01 0.  1.
</event>
<event>
 7   0  0.6206631E-02  0.9118800E+02  0.7818608E-02  0.1180000E+00
       11   -1    0    0    0    0  0.00000000000E+00  0.00000000000E+00  0.11999999989E+02  0.12000000000E+02  0.51109989000E-03 0. -1.
     -623   -1    0    0    0    0  0.00000000000E+00  0.00000000000E+00  0.42561509872E-11  0.25126700000E+02  0.25126700000E+02 0.  1.
      622    2    1    2    0    0  0.65112974819E-01  0.19908302090E-01  0.28520752793E+01  0.28556615516E+01  0.12583107063E+00 0.  0.
       11    1    1    2    0    0 -0.54577305094E-01 -0.75339808932E-01  0.91438014974E+01  0.91442747582E+01  0.51109989000E-03 0. -1.
     -623    1    1    2    0    0 -0.10535669724E-01  0.55431506842E-01  0.41232124262E-02  0.25126763690E+02  0.25126700000E+02 0.  1.
     -611    1    3    3    0    0  0.20189557680E-01 -0.50836595515E-01  0.85710261345E+00  0.85890445782E+00  0.10000000000E-01 0.  1.
      611    1    3    3    0    0  0.44923417138E-01  0.70744897605E-01  0.19949726659E+01  0.19967570938E+01  0.10000000000E-01 0. -1.
</event>
<event>
 7   0  0.6206631E-02  0.9118800E+02  0.7818608E-02  0.1180000E+00
       11   -1    0    0    0    0  0.00000000000E+00  0.00000000000E+00  0.11999999989E+02  0.12000000000E+02  0.51109989000E-03 0. -1.
     -623   -1    0    0    0    0  0.00000000000E+00  0.00000000000E+00  0.42561509872E-11  0.25126700000E+02  0.25126700000E+02 0.  1.
      622    2    1    2    0    0 -0.15375806079E-02  0.30643335343E-02  0.11997463284E+02  0.11997675568E+02  0.71288467690E-01 0.  0.
       11    1    1    2    0    0  0.10374481212E-02  0.92473245767E-03  0.17913079542E-02  0.23240989752E-02  0.51109989000E-03 0. -1.
     -623    1    1    2    0    0  0.50013248675E-03 -0.39890659920E-02  0.74539748394E-03  0.25126700333E+02  0.25126700000E+02 0.  1.
     -611    1    3    3    0    0 -0.30647023153E-01 -0.15118030547E-01  0.58588931877E+01  0.58590013807E+01  0.10000000000E-01 0. -1.
      611    1    3    3    0    0  0.29109442545E-01  0.18182364081E-01  0.61385700959E+01  0.61386741875E+01  0.10000000000E-01 0. -1.
</event>
<event>
 7   0  0.6206631E-02  0.9118800E+02  0.7818608E-02  0.1180000E+00
       11   -1    0    0    0    0  0.00000000000E+00  0.00000000000E+00  0.11999999989E+02  0.12000000000E+02  0.51109989000E-03 0.  1.
     -623   -1    0    0    0    0  0.00000000000E+00  0.00000000000E+00  0.42561509872E-11  0.25126700000E+02  0.25126700000E+02 0.  1.
      622    2    1    2    0    0  0.32566406664E-01 -0.44200436348E-01  0.11025032476E+02  0.11025623465E+02  0.10008721743E+00 0.  0.
       11    1    1    2    0    0 -0.43117753313E-01  0.47707201106E-01  0.97224954183E+00  0.97437392746E+00  0.51109989000E-03 0.  1.
     -623    1    1    2    0    0  0.10551346650E-01 -0.35067647575E-02  0.27179710886E-02  0.25126702607E+02  0.25126700000E+02 0.  1.
     -611    1    3    3    0    0 -0.77129061767E-02 -0.62699474288E-01  0.48152001517E+01  0.48156249038E+01  0.10000000000E-01 0.  1.
      611    1    3    3    0    0  0.40279312840E-01  0.18499037940E-01  0.62098323245E+01  0.62099985616E+01  0.10000000000E-01 0. -1.
</event>
<event>
 7   0  0.6206631E-02  0.9118800E+02  0.7818608E-02  0.1180000E+00
       11   -1    0    0    0    0  0.00000000000E+00  0.00000000000E+00  0.11999999989E+02  0.12000000000E+02  0.51109989000E-03 0.  1.
     -623   -1    0    0    0    0  0.00000000000E+00  0.00000000000E+00  0.42561509872E-11  0.25126700000E+02  0.25126700000E+02 0.  1.
      622    2    1    2    0    0 -0.45468100337E-01  0.19727502945E+00  0.40821213736E+01  0.40885427248E+01  0.10715371464E+00 0.  0.
       11    1    1    2    0    0  0.24479649218E-01 -0.15898459389E+00  0.79097825270E+01  0.79114180297E+01  0.51109989000E-03 0.  1.
     -623    1    1    2    0    0  0.20988451119E-01 -0.38290435561E-01  0.80960884628E-02  0.25126739245E+02  0.25126700000E+02 0.  1.
     -611    1    3    3    0    0  0.28330935998E-01  0.59869325958E-01  0.16856322989E+01  0.16869627219E+01  0.10000000000E-01 0. -1.
      611    1    3    3    0    0 -0.73799036335E-01  0.13740570349E+00  0.23964890748E+01  0.24015800029E+01  0.10000000000E-01 0.  1.
</event>
<event>
 7   0  0.6206631E-02  0.9118800E+02  0.7818608E-02  0.1180000E+00
       11   -1    0    0    0    0  0.00000000000E+00  0.00000000000E+00  0.11999999989E+02  0.12000000000E+02  0.51109989000E-03 0. -1.
     -623   -1    0    0    0    0  0.00000000000E+00  0.00000000000E+00  0.42561509872E-11  0.25126700000E+02  0.25126700000E+02 0. -1.
      622    2    1    2    0    0  0.23338822364E-01  0.22684212660E-02  0.11907262969E+02  0.11907751343E+02  0.10526533466E+00 0.  0.
       11    1    1    2    0    0 -0.27802803309E-01  0.10782148762E-01  0.87289721292E-01  0.92244280419E-01  0.51109989000E-03 0. -1.
     -623    1    1    2    0    0  0.44639809455E-02 -0.13050570028E-01  0.54472985562E-02  0.25126704376E+02  0.25126700000E+02 0. -1.
     -611    1    3    3    0    0  0.22507074701E-01  0.34007773083E-01  0.10538536175E+02  0.10538619824E+02  0.10000000000E-01 0. -1.
      611    1    3    3    0    0  0.83174766314E-03 -0.31739351817E-01  0.13687267945E+01  0.13691315190E+01  0.10000000000E-01 0.  1.
</event>
<event>
 6   0  0.6206631E-02  0.9118800E+02  0.7818608E-02  0.1180000E+00
       11   -1    0    0    0    0  0.00000000000E+00  0.00000000000E+00  0.11999999989E+02  0.12000000000E+02  0.51109989000E-03 0. -1.
     -623   -1    0    0    0    0  0.00000000000E+00  0.00000000000E+00  0.42561509872E-11  0.25126700000E+02  0.25126700000E+02 0.  1.
       11    1    1    2    0    0 -0.48334549096E-01 -0.36783461482E-01  0.37085511161E+01  0.37090485160E+01  0.51109989000E-03 0. -1.
     -623    1    1    2    0    0  0.79077318700E-02 -0.26004015976E-02  0.41475469475E-02  0.25126701721E+02  0.25126700000E+02 0.  1.
     -611    1    1    2    0    0 -0.40572728438E-01  0.10801573880E+00  0.25169849054E+01  0.25196481025E+01  0.10000000000E-01 0.  1.
      611    1    1    2    0    0  0.80999545664E-01 -0.68631875724E-01  0.57703164206E+01  0.57713016603E+01  0.10000000000E-01 0. -1.
</event>
<event>
 7   0  0.6206631E-02  0.9118800E+02  0.7818608E-02  0.1180000E+00
       11   -1    0    0    0    0  0.00000000000E+00  0.00000000000E+00  0.11999999989E+02  0.12000000000E+02  0.51109989000E-03 0. -1.
     -623   -1    0    0    0    0  0.00000000000E+00  0.00000000000E+00  0.42561509872E-11  0.25126700000E+02  0.25126700000E+02 0.  1.
      622    2    1    2    0    0  0.35544911500E-01  0.15577656471E-01  0.11884396954E+02  0.11884868604E+02  0.98512238650E-01 0.  0.
       11    1    1    2    0    0 -0.34543640731E-01  0.13455896458E-02  0.10981089626E+00  0.11512500982E+00  0.51109989000E-03 0. -1.
     -623    1    1    2    0    0 -0.10012707685E-02 -0.16923246117E-01  0.57921388987E-02  0.25126706387E+02  0.25126700000E+02 0.  1.
     -611    1    3    3    0    0 -0.24461830212E-01  0.47387069475E-02  0.12323791984E+01  0.12326716210E+01  0.10000000000E-01 0.  1.
      611    1    3    3    0    0  0.60006741712E-01  0.10838949523E-01  0.10652017756E+02  0.10652196983E+02  0.10000000000E-01 0. -1.
</event>
<event>
 7   0  0.6206631E-02  0.9118800E+02  0.7818608E-02  0.1180000E+00
       11   -1    0    0    0    0  0.00000000000E+00  0.00000000000E+00  0.11999999989E+02  0.12000000000E+02  0.51109989000E-03 0. -1.
     -623   -1    0    0    0    0  0.00000000000E+00  0.00000000000E+00  0.42561509872E-11  0.25126700000E+02  0.25126700000E+02 0.  1.
      622    2    1    2    0    0  0.15864625405E-01  0.94985342146E-02  0.11525949369E+02  0.11526528588E+02  0.11406359742E+00 0.  0.
       11    1    1    2    0    0 -0.14897191924E-01 -0.12988956072E-01  0.47305814874E+00  0.47347113177E+00  0.51109989000E-03 0. -1.
     -623    1    1    2    0    0 -0.96743348096E-03  0.34904218569E-02  0.99247091841E-03  0.25126700281E+02  0.25126700000E+02 0.  1.
     -611    1    3    3    0    0  0.61897928375E-01  0.21201874854E-01  0.73164965677E+01  0.73167959448E+01  0.10000000000E-01 0. -1.
      611    1    3    3    0    0 -0.46033302970E-01 -0.11703340639E-01  0.42094528018E+01  0.42097326428E+01  0.10000000000E-01 0.  1.
</event>
<event>
 7   0  0.6206631E-02  0.9118800E+02  0.7818608E-02  0.1180000E+00
       11   -1    0    0    0    0  0.00000000000E+00  0.00000000000E+00  0.11999999989E+02  0.12000000000E+02  0.51109989000E-03 0.  1.
     -623   -1    0    0    0    0  0.00000000000E+00  0.00000000000E+00  0.42561509872E-11  0.25126700000E+02  0.25126700000E+02 0. -1.
      622    2    1    2    0    0  0.30101434610E-01  0.34361055058E-02  0.11640189928E+02  0.11640937686E+02  0.12841634678E+00 0.  0.
       11    1    1    2    0    0 -0.30921065988E-01 -0.42723542507E-02  0.35770243974E+00  0.35906219789E+00  0.51109989000E-03 0.  1.
     -623    1    1    2    0    0  0.81963137806E-03  0.83624874494E-03  0.21076214551E-02  0.25126700116E+02  0.25126700000E+02 0. -1.
     -611    1    3    3    0    0 -0.27001675174E-01  0.20125889460E-01  0.10717962358E+01  0.10723718166E+01  0.10000000000E-01 0. -1.
      611    1    3    3    0    0  0.57103109784E-01 -0.16689783954E-01  0.10568393692E+02  0.10568565870E+02  0.10000000000E-01 0.  1.
</event>
<event>
 7   0  0.6206631E-02  0.9118800E+02  0.7818608E-02  0.1180000E+00
       11   -1    0    0    0    0  0.00000000000E+00  0.00000000000E+00  0.11999999989E+02  0.12000000000E+02  0.51109989000E-03 0. -1.
     -623   -1    0    0    0    0  0.00000000000E+00  0.00000000000E+00  0.42561509872E-11  0.25126700000E+02  0.25126700000E+02 0.  1.
      622    2    1    2    0    0 -0.29269089430E-01  0.24361518964E-01  0.11961676231E+02  0.11962245571E+02  0.11032085453E+00 0.  0.
       11    1    1    2    0    0  0.31042279135E-01  0.19228503606E-01 -0.92479177012E-02  0.37671523061E-01  0.51109989000E-03 0. -1.
     -623    1    1    2    0    0 -0.17731897046E-02 -0.43590022570E-01  0.47571675906E-01  0.25126782906E+02  0.25126700000E+02 0.  1.
     -611    1    3    3    0    0 -0.43130776463E-01  0.45402051946E-01  0.11011805783E+02  0.11011988386E+02  0.10000000000E-01 0. -1.
      611    1    3    3    0    0  0.13861687032E-01 -0.21040532981E-01  0.94987044792E+00  0.95025718531E+00  0.10000000000E-01 0.  1.
</event>
<event>
 7   0  0.6206631E-02  0.9118800E+02  0.7818608E-02  0.1180000E+00
       11   -1    0    0    0    0  0.00000000000E+00  0.00000000000E+00  0.11999999989E+02  0.12000000000E+02  0.51109989000E-03 0.  1.
     -623   -1    0    0    0    0  0.00000000000E+00  0.00000000000E+00  0.42561509872E-11  0.25126700000E+02  0.25126700000E+02 0. -1.
      622    2    1    2    0    0 -0.52746888526E-02  0.26173912508E-01  0.11607483076E+02  0.11607675701E+02  0.61310003497E-01 0.  0.
       11    1    1    2    0    0  0.18062886688E-01 -0.15252074628E-01  0.39160537771E+00  0.39231865458E+00  0.51109989000E-03 0.  1.
     -623    1    1    2    0    0 -0.12788197835E-01 -0.10921837880E-01  0.91153517214E-03  0.25126705645E+02  0.25126700000E+02 0. -1.
     -611    1    3    3    0    0 -0.22210966785E-01  0.10047119417E-01  0.95371335311E+01  0.95371699293E+01  0.10000000000E-01 0.  1.
      611    1    3    3    0    0  0.16936277932E-01  0.16126793091E-01  0.20703495453E+01  0.20705057717E+01  0.10000000000E-01 0. -1.
</event>
<event>
 7   0  0.6206631E-02  0.9118800E+02  0.7818608E-02  0.1180000E+00
       11   -1    0    0    0    0  0.00000000000E+00  0.00000000000E+00  0.11999999989E+02  0.12000000000E+02  0.51109989000E-03 0.  1.
     -623   -1    0    0    0    0  0.00000000000E+00  0.00000000000E+00  0.42561509872E-11  0.25126700000E+02  0.25126700000E+02 0. -1.
      622    2    1    2    0    0  0.24587773832E-02  0.18611516582E-01  0.97133529514E+01  0.97140383609E+01  0.11385641638E+00 0.  0.
       11    1    1    2    0    0  0.28743727108E-01 -0.15591432120E-01  0.22857081124E+01  0.22859420664E+01  0.51109989000E-03 0.  1.
     -623    1    1    2    0    0 -0.31202504491E-01 -0.30200844622E-02  0.93892534360E-03  0.25126719573E+02  0.25126700000E+02 0. -1.
     -611    1    3    3    0    0 -0.10998910778E-01 -0.19606386874E-01  0.51208008169E+00  0.51267084617E+00  0.10000000000E-01 0. -1.
      611    1    3    3    0    0  0.13457688161E-01  0.38217903456E-01  0.92012728697E+01  0.92013675147E+01  0.10000000000E-01 0.  1.
</event>
<event>
 7   0  0.6206631E-02  0.9118800E+02  0.7818608E-02  0.1180000E+00
       11   -1    0    0    0    0  0.00000000000E+00  0.00000000000E+00  0.11999999989E+02  0.12000000000E+02  0.51109989000E-03 0.  1.
     -623   -1    0    0    0    0  0.00000000000E+00  0.00000000000E+00  0.42561509872E-11  0.25126700000E+02  0.25126700000E+02 0.  1.
      622    2    1    2    0    0 -0.20152703230E-01 -0.26264165393E-01  0.51841623800E+01  0.51871093248E+01  0.17166137264E+00 0.  0.
       11    1    1    2    0    0 -0.56689388575E-03  0.21666309489E-01  0.68128470394E+01  0.68128815338E+01  0.51109989000E-03 0.  1.
     -623    1    1    2    0    0  0.20719597115E-01  0.45978559040E-02  0.29905696649E-02  0.25126709141E+02  0.25126700000E+02 0.  1.
     -611    1    3    3    0    0  0.31592528421E-01  0.52861162261E-01  0.10486193455E+01  0.10504736656E+01  0.10000000000E-01 0. -1.
      611    1    3    3    0    0 -0.51745231651E-01 -0.79125327655E-01  0.41355430345E+01  0.41366356592E+01  0.10000000000E-01 0.  1.
</event>
<event>
 7   0  0.6206631E-02  0.9118800E+02  0.7818608E-02  0.1180000E+00
       11   -1    0    0    0    0  0.00000000000E+00  0.00000000000E+00  0.11999999989E+02  0.12000000000E+02  0.51109989000E-03 0. -1.
     -623   -1    0    0    0    0  0.00000000000E+00  0.00000000000E+00  0.42561509872E-11  0.25126700000E+02  0.25126700000E+02 0. -1.
      622    2    1    2    0    0 -0.54858035883E-03 -0.74775424607E-02  0.11850405413E+02  0.11850860814E+02  0.10362126968E+00 0.  0.
       11    1    1    2    0    0 -0.17584228511E-02  0.75757734596E-02  0.14893527778E+00  0.14913907128E+00  0.51109989000E-03 0. -1.
     -623    1    1    2    0    0  0.23070032100E-02 -0.98230998915E-04  0.65929845395E-03  0.25126700115E+02  0.25126700000E+02 0. -1.
     -611    1    3    3    0    0  0.13503992157E-01  0.51946373001E-02  0.11332169453E+02  0.11332183102E+02  0.10000000000E-01 0. -1.
      611    1    3    3    0    0 -0.14052572516E-01 -0.12672179761E-01  0.51823595946E+00  0.51867771169E+00  0.10000000000E-01 0.  1.
</event>
<event>
 7   0  0.6206631E-02  0.9118800E+02  0.7818608E-02  0.1180000E+00
       11   -1    0    0    0    0  0.00000000000E+00  0.00000000000E+00  0.11999999989E+02  0.12000000000E+02  0.51109989000E-03 0.  1.
     -623   -1    0    0    0    0  0.00000000000E+00  0.00000000000E+00  0.42561509872E-11  0.25126700000E+02  0.25126700000E+02 0.  1.
      622    2    1    2    0    0 -0.26167430988E-02  0.73627650489E-02  0.11471177169E+02  0.11471466551E+02  0.81105641192E-01 0.  0.
       11    1    1    2    0    0  0.28959446132E-02 -0.73966645886E-02  0.52847350381E+00  0.52853344510E+00  0.51109989000E-03 0.  1.
     -623    1    1    2    0    0 -0.27920151442E-03  0.33899539702E-04  0.34931618015E-03  0.25126700004E+02  0.25126700000E+02 0.  1.
     -611    1    3    3    0    0 -0.24458051518E-01 -0.22557321213E-01  0.29769860045E+01  0.29771887243E+01  0.10000000000E-01 0. -1.
      611    1    3    3    0    0  0.21841308419E-01  0.29920086262E-01  0.84941911647E+01  0.84942778266E+01  0.10000000000E-01 0.  1.
</event>
<event>
 7   0  0.6206631E-02  0.9118800E+02  0.7818608E-02  0.1180000E+00
       11   -1    0    0    0    0  0.00000000000E+00  0.00000000000E+00  0.11999999989E+02  0.12000000000E+02  0.51109989000E-03 0.  1.
     -623   -1    0    0    0    0  0.00000000000E+00  0.00000000000E+00  0.42561509872E-11  0.25126700000E+02  0.25126700000E+02 0.  1.
      622    2    1    2    0    0 -0.12938600512E-02  0.18103910545E-02  0.11992461945E+02  0.11992993888E+02  0.11293334633E+00 0.  0.
       11    1    1    2    0    0 -0.55656160567E-03 -0.48433428387E-03  0.69482729530E-02  0.70060017617E-02  0.51109989000E-03 0.  1.
     -623    1    1    2    0    0  0.18504216569E-02 -0.13260567706E-02  0.58977085096E-03  0.25126700110E+02  0.25126700000E+02 0.  1.
     -611    1    3    3    0    0 -0.43394902822E-01 -0.28410583354E-01  0.38703804215E+01  0.38707408704E+01  0.10000000000E-01 0. -1.
      611    1    3    3    0    0  0.42101042771E-01  0.30220974409E-01  0.81220815238E+01  0.81222530178E+01  0.10000000000E-01 0.  1.
</event>
<event>
 7   0  0.6206631E-02  0.9118800E+02  0.7818608E-02  0.1180000E+00
       11   -1    0    0    0    0  0.00000000000E+00  0.00000000000E+00  0.11999999989E+02  0.12000000000E+02  0.51109989000E-03 0. -1.
     -623   -1    0    0    0    0  0.00000000000E+00  0.00000000000E+00  0.42561509872E-11  0.25126700000E+02  0.25126700000E+02 0. -1.
      622    2    1    2    0    0  0.81777443862E-02  0.12346428220E+00  0.99433544619E+01  0.99451582280E+01  0.14340125795E+00 0.  0.
       11    1    1    2    0    0  0.47631309820E-02 -0.11731518642E+00  0.20514799382E+01  0.20548371561E+01  0.51109989000E-03 0. -1.
     -623    1    1    2    0    0 -0.12940875368E-01 -0.61490957761E-02  0.51655890463E-02  0.25126704616E+02  0.25126700000E+02 0. -1.
     -611    1    3    3    0    0 -0.57409277648E-01  0.98813326109E-01  0.70791884512E+01  0.70801178681E+01  0.10000000000E-01 0. -1.
      611    1    3    3    0    0  0.65587022034E-01  0.24650956089E-01  0.28641660108E+01  0.28650403600E+01  0.10000000000E-01 0.  1.
</event>
<event>
 7   0  0.6206631E-02  0.9118800E+02  0.7818608E-02  0.1180000E+00
       11   -1    0    0    0    0  0.00000000000E+00  0.00000000000E+00  0.11999999989E+02  0.12000000000E+02  0.51109989000E-03 0.  1.
     -623   -1    0    0    0    0  0.00000000000E+00  0.00000000000E+00  0.42561509872E-11  0.25126700000E+02  0.25126700000E+02 0.  1.
      622    2    1    2    0    0 -0.12000507245E-01 -0.10746778087E-01  0.87730699981E+01  0.87735364600E+01  0.89024257901E-01 0.  0.
       11    1    1    2    0    0  0.51450296440E-02  0.93689497376E-02  0.32264448168E+01  0.32264625623E+01  0.51109989000E-03 0.  1.
     -623    1    1    2    0    0  0.68554776011E-02  0.13778283497E-02  0.48517417656E-03  0.25126700978E+02  0.25126700000E+02 0.  1.
     -611    1    3    3    0    0 -0.13332247978E-02 -0.40146289127E-01  0.72235865955E+01  0.72237051992E+01  0.10000000000E-01 0.  1.
      611    1    3    3    0    0 -0.10667282447E-01  0.29399511040E-01  0.15494834026E+01  0.15498312608E+01  0.10000000000E-01 0. -1.
</event>
<event>
 7   0  0.6206631E-02  0.9118800E+02  0.7818608E-02  0.1180000E+00
       11   -1    0    0    0    0  0.00000000000E+00  0.00000000000E+00  0.11999999989E+02  0.12000000000E+02  0.51109989000E-03 0. -1.
     -623   -1    0    0    0    0  0.00000000000E+00  0.00000000000E+00  0.42561509872E-11  0.25126700000E+02  0.25126700000E+02 0. -1.
      622    2    1    2    0    0 -0.14639736058E-01  0.69805914938E-01  0.60259961858E+01  0.60266709565E+01  0.55186944465E-01 0.  0.
       11    1    1    2    0    0  0.18775476937E-01 -0.73728010252E-01  0.59728438134E+01  0.59733283702E+01  0.51109989000E-03 0. -1.
     -623    1    1    2    0    0 -0.41357408789E-02  0.39220953134E-02  0.11599898729E-02  0.25126700673E+02  0.25126700000E+02 0. -1.
     -611    1    3    3    0    0  0.71100595279E-02  0.63907001866E-01  0.40869598339E+01  0.40874778705E+01  0.10000000000E-01 0.  1.
      611    1    3    3    0    0 -0.21749795586E-01  0.58989130720E-02  0.19390363519E+01  0.19391930860E+01  0.10000000000E-01 0. -1.
</event>
<event>
 7   0  0.6206631E-02  0.9118800E+02  0.7818608E-02  0.1180000E+00
       11   -1    0    0    0    0  0.00000000000E+00  0.00000000000E+00  0.11999999989E+02  0.12000000000E+02  0.51109989000E-03 0. -1.
     -623   -1    0    0    0    0  0.00000000000E+00  0.00000000000E+00  0.42561509872E-11  0.25126700000E+02  0.25126700000E+02 0.  1.
      622    2    1    2    0    0 -0.15354904617E+00 -0.35250612822E-01  0.75395199990E+01  0.75417885782E+01  0.96918667253E-01 0.  0.
       11    1    1    2    0    0  0.10771080141E+00  0.38727887954E-01  0.44566994368E+01  0.44581690858E+01  0.51109989000E-03 0. -1.
     -623    1    1    2    0    0  0.45838244760E-01 -0.34772751315E-02  0.37805532880E-02  0.25126742336E+02  0.25126700000E+02 0.  1.
     -611    1    3    3    0    0 -0.46729941470E-01 -0.44529401272E-01  0.16635080866E+01  0.16647899895E+01  0.10000000000E-01 0.  1.
      611    1    3    3    0    0 -0.10681910470E+00  0.92787884505E-02  0.58760119124E+01  0.58769985887E+01  0.10000000000E-01 0. -1.
</event>
<event>
 7   0  0.6206631E-02  0.9118800E+02  0.7818608E-02  0.1180000E+00
       11   -1    0    0    0    0  0.00000000000E+00  0.00000000000E+00  0.11999999989E+02  0.12000000000E+02  0.51109989000E-03 0.  1.
     -623   -1    0    0    0    0  0.00000000000E+00  0.00000000000E+00  0.42561509872E-11  0.25126700000E+02  0.25126700000E+02 0.  1.
      622    2    1    2    0    0  0.94967261212E-02 -0.56722765755E-02  0.10053099363E+02  0.10053192176E+02  0.41758427672E-01 0.  0.
       11    1    1    2    0    0  0.15435325701E-01 -0.11443097546E-02  0.19467329345E+01  0.19467945290E+01  0.51109989000E-03 0.  1.
     -623    1    1    2    0    0 -0.24932051822E-01  0.68165863301E-02  0.16769145847E-03  0.25126713295E+02  0.25126700000E+02 0.  1.
     -611    1    3    3    0    0 -0.59244793319E-02 -0.24256211025E-02  0.79790759683E+01  0.79790848029E+01  0.10000000000E-01 0.  1.
      611    1    3    3    0    0  0.15421205453E-01 -0.32466554731E-02  0.20740233948E+01  0.20741073735E+01  0.10000000000E-01 0.  1.
</event>
<event>
 7   0  0.6206631E-02  0.9118800E+02  0.7818608E-02  0.1180000E+00
       11   -1    0    0    0    0  0.00000000000E+00  0.00000000000E+00  0.11999999989E+02  0.12000000000E+02  0.51109989000E-03 0. -1.
     -623   -1    0    0    0    0  0.00000000000E+00  0.00000000000E+00  0.42561509872E-11  0.25126700000E+02  0.25126700000E+02 0.  1.
      622    2    1    2    0    0 -0.36301323139E-02  0.19342161964E-02  0.11995427743E+02  0.11996763115E+02  0.17894576122E+00 0.  0.
       11    1    1    2    0    0  0.18343872520E-03 -0.96526301127E-06  0.31906572483E-02  0.32365363481E-02  0.51109989000E-03 0. -1.
     -623    1    1    2    0    0  0.34466935887E-02 -0.19332509334E-02  0.13815891639E-02  0.25126700349E+02  0.25126700000E+02 0.  1.
     -611    1    3    3    0    0 -0.23445791757E-01  0.81370983651E-01  0.39931350130E+01  0.39940453395E+01  0.10000000000E-01 0. -1.
      611    1    3    3    0    0  0.19815659443E-01 -0.79436767455E-01  0.80022927298E+01  0.80027177754E+01  0.10000000000E-01 0.  1.
</event>
<event>
 7   0  0.6206631E-02  0.9118800E+02  0.7818608E-02  0.1180000E+00
       11   -1    0    0    0    0  0.00000000000E+00  0.00000000000E+00  0.11999999989E+02  0.12000000000E+02  0.51109989000E-03 0. -1.
     -623   -1    0    0    0    0  0.00000000000E+00  0.00000000000E+00  0.42561509872E-11  0.25126700000E+02  0.25126700000E+02 0. -1.
      622    2    1    2    0    0 -0.32504462959E-02  0.16277505394E-01  0.11909052061E+02  0.11909550069E+02  0.10763980161E+00 0.  0.
       11    1    1    2    0    0  0.76034884627E-03  0.62936233433E-02  0.90215757769E-01  0.90439659432E-01  0.51109989000E-03 0. -1.
     -623    1    1    2    0    0  0.24900974496E-02 -0.22571128738E-01  0.73217036603E-03  0.25126710272E+02  0.25126700000E+02 0. -1.
     -611    1    3    3    0    0 -0.46562677651E-01  0.35519084908E-01  0.57227311403E+01  0.57230395239E+01  0.10000000000E-01 0. -1.
      611    1    3    3    0    0  0.43312231355E-01 -0.19241579514E-01  0.61863209207E+01  0.61865105448E+01  0.10000000000E-01 0.  1.
</event>
<event>
 7   0  0.6206631E-02  0.9118800E+02  0.7818608E-02  0.1180000E+00
       11   -1    0    0    0    0  0.00000000000E+00  0.00000000000E+00  0.11999999989E+02  0.12000000000E+02  0.51109989000E-03 0. -1.
     -623   -1    0    0    0    0  0.00000000000E+00  0.00000000000E+00  0.42561509872E-11  0.25126700000E+02  0.25126700000E+02 0. -1.
      622    2    1    2    0    0 -0.13856178263E-02  0.15761676329E-02  0.11998002663E+02  0.11998608273E+02  0.12053288698E+00 0.  0.
       11    1    1    2    0    0 -0.42019776431E-03 -0.49513740702E-05  0.12242303403E-02  0.13916011460E-02  0.51109989000E-03 0. -1.
     -623    1    1    2    0    0  0.18058155906E-02 -0.15712162588E-02  0.77309556547E-03  0.25126700126E+02  0.25126700000E+02 0. -1.
     -611    1    3    3    0    0  0.38217853932E-01  0.13309157720E-01  0.16767179319E+01  0.16772360482E+01  0.10000000000E-01 0.  1.
      611    1    3    3    0    0 -0.39603471759E-01 -0.11732990087E-01  0.10321284731E+02  0.10321372225E+02  0.10000000000E-01 0. -1.
</event>
<event>
 7   0  0.6206631E-02  0.9118800E+02  0.7818608E-02  0.1180000E+00
       11   -1    0    0    0    0  0.00000000000E+00  0.00000000000E+00  0.11999999989E+02  0.12000000000E+02  0.51109989000E-03 0.  1.
     -623   -1    0    0    0    0  0.00000000000E+00  0.00000000000E+00  0.42561509872E-11  0.25126700000E+02  0.25126700000E+02 0.  1.
      622    2    1    2    0    0 -0.91781672287E-03 -0.21007837654E-02  0.11983246274E+02  0.11983682961E+02  0.10227795440E+00 0.  0.
       11    1    1    2    0    0 -0.22759842667E-03  0.24451832284E-02  0.16123046452E-01  0.16317002547E-01  0.51109989000E-03 0.  1.
     -623    1    1    2    0    0  0.11454151495E-02 -0.34439946297E-03  0.63066814639E-03  0.25126700036E+02  0.25126700000E+02 0.  1.
     -611    1    3    3    0    0 -0.40195842779E-01  0.11789224887E-01  0.27492467770E+01  0.27495840654E+01  0.10000000000E-01 0. -1.
      611    1    3    3    0    0  0.39278026056E-01 -0.13890008652E-01  0.92339994974E+01  0.92340988956E+01  0.10000000000E-01 0.  1.
</event>
<event>
 7   0  0.6206631E-02  0.9118800E+02  0.7818608E-02  0.1180000E+00
       11   -1    0    0    0    0  0.00000000000E+00  0.00000000000E+00  0.11999999989E+02  0.12000000000E+02  0.51109989000E-03 0. -1.
     -623   -1    0    0    0    0  0.00000000000E+00  0.00000000000E+00  0.42561509872E-11  0.25126700000E+02  0.25126700000E+02 0. -1.
      622    2    1    2    0    0  0.16691139417E-03 -0.19944343552E-01  0.11696103774E+02  0.11696770989E+02  0.12332987815E+00 0.  0.
       11    1    1    2    0    0 -0.76857296713E-03  0.21069419785E-01  0.30249465716E+00  0.30322893990E+00  0.51109989000E-03 0. -1.
     -623    1    1    2    0    0  0.60166157296E-03 -0.11250762328E-02  0.14015577603E-02  0.25126700071E+02  0.25126700000E+02 0. -1.
     -611    1    3    3    0    0  0.51235452165E-01  0.85544189465E-02  0.30115684210E+01  0.30120329686E+01  0.10000000000E-01 0. -1.
      611    1    3    3    0    0 -0.51068540771E-01 -0.28498762499E-01  0.86845353532E+01  0.86847380200E+01  0.10000000000E-01 0. -1.
</event>
<event>
 7   0  0.6206631E-02  0.9118800E+02  0.7818608E-02  0.1180000E+00
       11   -1    0    0    0    0  0.00000000000E+00  0.00000000000E+00  0.11999999989E+02  0.12000000000E+02  0.51109989000E-03 0. -1.
     -623   -1    0    0    0    0  0.00000000000E+00  0.00000000000E+00  0.42561509872E-11  0.25126700000E+02  0.25126700000E+02 0.  1.
      622    2    1    2    0    0  0.14212815903E-02  0.15706935241E-01  0.10951168040E+02  0.10951829492E+02  0.11932748133E+00 0.  0.
       11    1    1    2    0    0 -0.65664284144E-02 -0.14243026423E-01  0.10480524571E+01  0.10481699270E+01  0.51109989000E-03 0. -1.
     -623    1    1    2    0    0  0.51451468241E-02 -0.14639088179E-02  0.77949225566E-03  0.25126700582E+02  0.25126700000E+02 0.  1.
     -611    1    3    3    0    0  0.24165515517E-01  0.60900829525E-01  0.72354177839E+01  0.72357213455E+01  0.10000000000E-01 0.  1.
      611    1    3    3    0    0 -0.22744233926E-01 -0.45193894284E-01  0.37157502559E+01  0.37161081460E+01  0.10000000000E-01 0. -1.
</event>
<event>
 7   0  0.6206631E-02  0.9118800E+02  0.7818608E-02  0.1180000E+00
       11   -1    0    0    0    0  0.00000000000E+00  0.00000000000E+00  0.11999999989E+02  0.12000000000E+02  0.51109989000E-03 0.  1.
     -623   -1    0    0    0    0  0.00000000000E+00  0.00000000000E+00  0.42561509872E-11  0.25126700000E+02  0.25126700000E+02 0. -1.
      622    2    1    2    0    0  0.27221216058E-01  0.10453034004E-01  0.11836751799E+02  0.11837944646E+02  0.16549931033E+00 0.  0.
       11    1    1    2    0    0 -0.27298812838E-01 -0.39766184182E-02  0.15968808881E+00  0.16205426748E+00  0.51109989000E-03 0.  1.
     -623    1    1    2    0    0  0.77596779464E-04 -0.64764155862E-02  0.35601014094E-02  0.25126701087E+02  0.25126700000E+02 0. -1.
     -611    1    3    3    0    0 -0.39424051403E-01 -0.31877238772E-01  0.87953904075E+01  0.87955422138E+01  0.10000000000E-01 0. -1.
      611    1    3    3    0    0  0.66645267462E-01  0.42330272776E-01  0.30413613914E+01  0.30424024318E+01  0.10000000000E-01 0.  1.
</event>
<event>
 7   0  0.6206631E-02  0.9118800E+02  0.7818608E-02  0.1180000E+00
       11   -1    0    0    0    0  0.00000000000E+00  0.00000000000E+00  0.11999999989E+02  0.12000000000E+02  0.51109989000E-03 0. -1.
     -623   -1    0    0    0    0  0.00000000000E+00  0.00000000000E+00  0.42561509872E-11  0.25126700000E+02  0.25126700000E+02 0. -1.
      622    2    1    2    0    0  0.37960494389E-01 -0.59586809338E-02  0.10708939916E+02  0.10709439670E+02  0.96059460411E-01 0.  0.
       11    1    1    2    0    0 -0.31241089478E-01  0.29645688137E-01  0.12898292976E+01  0.12905482364E+01  0.51109989000E-03 0. -1.
     -623    1    1    2    0    0 -0.67194049103E-02 -0.23687007203E-01  0.12307756824E-02  0.25126712093E+02  0.25126700000E+02 0. -1.
     -611    1    3    3    0    0  0.43353086794E-01 -0.21159424931E-01  0.25402254438E+01  0.25407031540E+01  0.10000000000E-01 0.  1.
      611    1    3    3    0    0 -0.53925924050E-02  0.15200743997E-01  0.81687144721E+01  0.81687365160E+01  0.10000000000E-01 0.  1.
</event>
<event>
 7   0  0.6206631E-02  0.9118800E+02  0.7818608E-02  0.1180000E+00
       11   -1    0    0    0    0  0.00000000000E+00  0.00000000000E+00  0.11999999989E+02  0.12000000000E+02  0.51109989000E-03 0. -1.
     -623   -1    0    0    0    0  0.00000000000E+00  0.00000000000E+00  0.42561509872E-11  0.25126700000E+02  0.25126700000E+02 0.  1.
      622    2    1    2    0    0 -0.72712914366E-01  0.50975821891E-01  0.65830975218E+01  0.65845390804E+01  0.10533858491E+00 0.  0.
       11    1    1    2    0    0  0.82640068261E-01 -0.40196881324E-01  0.54146767393E+01  0.54154565480E+01  0.51109989000E-03 0. -1.
     -623    1    1    2    0    0 -0.99271538947E-02 -0.10778940567E-01  0.22257279493E-02  0.25126704372E+02  0.25126700000E+02 0.  1.
     -611    1    3    3    0    0 -0.88508468576E-01  0.65390079339E-01  0.47262381988E+01  0.47275297062E+01  0.10000000000E-01 0. -1.
      611    1    3    3    0    0  0.15795554210E-01 -0.14414257448E-01  0.18568593231E+01  0.18570093742E+01  0.10000000000E-01 0. -1.
</event>
<event>
 7   0  0.6206631E-02  0.9118800E+02  0.7818608E-02  0.1180000E+00
       11   -1    0    0    0    0  0.00000000000E+00  0.00000000000E+00  0.11999999989E+02  0.12000000000E+02  0.51109989000E-03 0.  1.
     -623   -1    0    0    0    0  0.00000000000E+00  0.00000000000E+00  0.42561509872E-11  0.25126700000E+02  0.25126700000E+02 0.  1.
      622    2    1    2    0    0 -0.64541000558E-02  0.17241928415E-01  0.11560001412E+02  0.11560469929E+02  0.10243726729E+00 0.  0.
       11    1    1    2    0    0  0.22733593134E-01 -0.84343792857E-02  0.43885356526E+00  0.43952322803E+00  0.51109989000E-03 0.  1.
     -623    1    1    2    0    0 -0.16279493078E-01 -0.88075491292E-02  0.11450122933E-02  0.25126706843E+02  0.25126700000E+02 0.  1.
     -611    1    3    3    0    0  0.39965156170E-01  0.11243626545E-01  0.83755281431E+01  0.83756370091E+01  0.10000000000E-01 0. -1.
      611    1    3    3    0    0 -0.46419256225E-01  0.59983018696E-02  0.31844732684E+01  0.31848329194E+01  0.10000000000E-01 0.  1.
</event>
<event>
 7   0  0.6206631E-02  0.9118800E+02  0.7818608E-02  0.1180000E+00
       11   -1    0    0    0    0  0.00000000000E+00  0.00000000000E+00  0.11999999989E+02  0.12000000000E+02  0.51109989000E-03 0. -1.
     -623   -1    0    0    0    0  0.00000000000E+00  0.00000000000E+00  0.42561509872E-11  0.25126700000E+02  0.25126700000E+02 0.  1.
      622    2    1    2    0    0 -0.13134946211E-01  0.41086268129E-01  0.11047762131E+02  0.11048314277E+02  0.10168412175E+00 0.  0.
       11    1    1    2    0    0 -0.13601288256E-01  0.21980305487E-01  0.95124107132E+00  0.95159233176E+00  0.51109989000E-03 0. -1.
     -623    1    1    2    0    0  0.26736234467E-01 -0.63066573616E-01  0.99678672123E-03  0.25126793391E+02  0.25126700000E+02 0.  1.
     -611    1    3    3    0    0 -0.24999478140E-01  0.38535030461E-01  0.20520273143E+01  0.20525657166E+01  0.10000000000E-01 0.  1.
      611    1    3    3    0    0  0.11864531929E-01  0.25512376674E-02  0.89957348167E+01  0.89957485608E+01  0.10000000000E-01 0. -1.
</event>
<event>
 7   0  0.6206631E-02  0.9118800E+02  0.7818608E-02  0.1180000E+00
       11   -1    0    0    0    0  0.00000000000E+00  0.00000000000E+00  0.11999999989E+02  0.12000000000E+02  0.51109989000E-03 0.  1.
     -623   -1    0    0    0    0  0.00000000000E+00  0.00000000000E+00  0.42561509872E-11  0.25126700000E+02  0.25126700000E+02 0. -1.
      622    2    1    2    0    0  0.12720641588E-01 -0.21432418099E-01  0.11183977673E+02  0.11184124321E+02  0.51566348697E-01 0.  0.
       11    1    1    2    0    0 -0.14746563507E-01  0.20274170107E-01  0.81549014241E+00  0.81587556447E+00  0.51109989000E-03 0.  1.
     -623    1    1    2    0    0  0.20259219191E-02  0.11582479924E-02  0.53217381793E-03  0.25126700114E+02  0.25126700000E+02 0. -1.
     -611    1    3    3    0    0  0.28870883979E-01 -0.30499842216E-02  0.56266159153E+01  0.56266996978E+01  0.10000000000E-01 0. -1.
      611    1    3    3    0    0 -0.16150242391E-01 -0.18382433877E-01  0.55573617575E+01  0.55574246237E+01  0.10000000000E-01 0.  1.
</event>
<event>
 7   0  0.6206631E-02  0.9118800E+02  0.7818608E-02  0.1180000E+00
       11   -1    0    0    0    0  0.00000000000E+00  0.00000000000E+00  0.11999999989E+02  0.12000000000E+02  0.51109989000E-03 0.  1.
     -623   -1    0    0    0    0  0.00000000000E+00  0.00000000000E+00  0.42561509872E-11  0.25126700000E+02  0.25126700000E+02 0.  1.
      622    2    1    2    0    0  0.57020730782E-02  0.60819733595E-02  0.81795352898E+01  0.81798690269E+01  0.73418221833E-01 0.  0.
       11    1    1    2    0    0 -0.10537885397E+00  0.30994811375E-01  0.38183261827E+01  0.38199058208E+01  0.51109989000E-03 0.  1.
     -623    1    1    2    0    0  0.99676780890E-01 -0.37076784734E-01  0.21385166382E-02  0.25126925152E+02  0.25126700000E+02 0.  1.
     -611    1    3    3    0    0  0.33979601066E-01  0.60610569645E-02  0.25424749410E+01  0.25427288835E+01  0.10000000000E-01 0. -1.
      611    1    3    3    0    0 -0.28277527988E-01  0.20916394974E-04  0.56370603488E+01  0.56371401433E+01  0.10000000000E-01 0.  1.
</event>
<event>
 7   0  0.6206631E-02  0.9118800E+02  0.7818608E-02  0.1180000E+00
       11   -1    0    0    0    0  0.00000000000E+00  0.00000000000E+00  0.11999999989E+02  0.12000000000E+02  0.51109989000E-03 0.  1.
     -623   -1    0    0    0    0  0.00000000000E+00  0.00000000000E+00  0.42561509872E-11  0.25126700000E+02  0.25126700000E+02 0.  1.
      622    2    1    2    0    0 -0.12315275681E-01  0.43138219173E-01  0.11545766160E+02  0.11546136998E+02  0.80936869037E-01 0.  0.
       11    1    1    2    0    0 -0.46661166421E-01  0.23628062501E-01  0.45067978019E+00  0.45370483277E+00  0.51109989000E-03 0.  1.
     -623    1    1    2    0    0  0.58976442102E-01 -0.66766281673E-01  0.35540490901E-02  0.25126858170E+02  0.25126700000E+02 0.  1.
     -611    1    3    3    0    0 -0.45326079636E-01  0.17747397961E-01  0.60970052065E+01  0.60972077143E+01  0.10000000000E-01 0. -1.
      611    1    3    3    0    0  0.33010803955E-01  0.25390821211E-01  0.54487609533E+01  0.54489292832E+01  0.10000000000E-01 0.  1.
</event>
<event>
 7   0  0.6206631E-02  0.9118800E+02  0.7818608E-02  0.1180000E+00
       11   -1    0    0    0    0  0.00000000000E+00  0.00000000000E+00  0.11999999989E+02  0.12000000000E+02  0.51109989000E-03 0. -1.
     -623   -1    0    0    0    0  0.00000000000E+00  0.00000000000E+00  0.42561509872E-11  0.25126700000E+02  0.25126700000E+02 0.  1.
      622    2    1    2    0    0 -0.32922433734E-01 -0.20845786399E-01  0.99575397893E+01  0.99582660326E+01  0.11377735802E+00 0.  0.
       11    1    1    2    0    0  0.36125871991E-01  0.12291513771E-01  0.20413755893E+01  0.20417322836E+01  0.51109989000E-03 0. -1.
     -623    1    1    2    0    0 -0.32034382565E-02  0.85542726273E-02  0.10846104365E-02  0.25126701684E+02  0.25126700000E+02 0.  1.
     -611    1    3    3    0    0  0.37564620777E-01  0.13558518420E-01  0.33127266711E+01  0.33129824828E+01  0.10000000000E-01 0.  1.
      611    1    3    3    0    0 -0.70487054511E-01 -0.34404304818E-01  0.66448131183E+01  0.66452835499E+01  0.10000000000E-01 0. -1.
</event>
<event>
 7   0  0.6206631E-02  0.9118800E+02  0.7818608E-02  0.1180000E+00
       11   -1    0    0    0    0  0.00000000000E+00  0.00000000000E+00  0.11999999989E+02  0.12000000000E+02  0.51109989000E-03 0. -1.
     -623   -1    0    0    0    0  0.00000000000E+00  0.00000000000E+00  0.42561509872E-11  0.25126700000E+02  0.25126700000E+02 0. -1.
      622    2    1    2    0    0  0.58556385528E-01  0.21918687394E-01  0.78423805777E+01  0.78441742655E+01  0.15565186565E+00 0.  0.
       11    1    1    2    0    0 -0.59685271440E-01 -0.24180838691E-01  0.41553264978E+01  0.41558255027E+01  0.51109989000E-03 0. -1.
     -623    1    1    2    0    0  0.11288859120E-02  0.22621512973E-02  0.22929136810E-02  0.25126700232E+02  0.25126700000E+02 0. -1.
     -611    1    3    3    0    0  0.49266036878E-01  0.78834902178E-01  0.30411944433E+01  0.30426313819E+01  0.10000000000E-01 0.  1.
      611    1    3    3    0    0  0.92903486499E-02 -0.56916214785E-01  0.48011861343E+01  0.48015428835E+01  0.10000000000E-01 0. -1.
</event>
<event>
 7   0  0.6206631E-02  0.9118800E+02  0.7818608E-02  0.1180000E+00
       11   -1    0    0    0    0  0.00000000000E+00  0.00000000000E+00  0.11999999989E+02  0.12000000000E+02  0.51109989000E-03 0. -1.
     -623   -1    0    0    0    0  0.00000000000E+00  0.00000000000E+00  0.42561509872E-11  0.25126700000E+02  0.25126700000E+02 0.  1.
      622    2    1    2    0    0 -0.71584635304E-02 -0.51464477683E-02  0.11989466066E+02  0.11989832347E+02  0.93302909745E-01 0.  0.
       11    1    1    2    0    0  0.13765260790E-02  0.31853764871E-02  0.95426946648E-02  0.10166891954E-01  0.51109989000E-03 0. -1.
     -623    1    1    2    0    0  0.57819374514E-02  0.19610712811E-02  0.99122877868E-03  0.25126700761E+02  0.25126700000E+02 0.  1.
     -611    1    3    3    0    0 -0.19077072852E-01  0.18987946043E-01  0.10732237599E+02  0.10732276010E+02  0.10000000000E-01 0. -1.
      611    1    3    3    0    0  0.11918609321E-01 -0.24134393811E-01  0.12572284667E+01  0.12575563366E+01  0.10000000000E-01 0.  1.
</event>
<event>
 7   0  0.6206631E-02  0.9118800E+02  0.7818608E-02  0.1180000E+00
       11   -1    0    0    0    0  0.00000000000E+00  0.00000000000E+00  0.11999999989E+02  0.12000000000E+02  0.51109989000E-03 0. -1.
     -623   -1    0    0    0    0  0.00000000000E+00  0.00000000000E+00  0.42561509872E-11  0.25126700000E+02  0.25126700000E+02 0.  1.
      622    2    1    2    0    0  0.78020386859E-02 -0.17771080845E-01  0.11785914887E+02  0.11786554519E+02  0.12124773694E+00 0.  0.
       11    1    1    2    0    0  0.10658492859E-01  0.10211461609E-01  0.21292590955E+00  0.21343753559E+00  0.51109989000E-03 0. -1.
     -623    1    1    2    0    0 -0.18460531545E-01  0.75596192355E-02  0.11591921699E-02  0.25126707945E+02  0.25126700000E+02 0.  1.
     -611    1    3    3    0    0  0.25421817742E-01 -0.62391230951E-01  0.50177857125E+01  0.50182479404E+01  0.10000000000E-01 0.  1.
      611    1    3    3    0    0 -0.17619779056E-01  0.44620150106E-01  0.67681291749E+01  0.67683065786E+01  0.10000000000E-01 0. -1.
</event>
<event>
 7   0  0.6206631E-02  0.9118800E+02  0.7818608E-02  0.1180000E+00
       11   -1    0    0    0    0  0.00000000000E+00  0.00000000000E+00  0.11999999989E+02  0.12000000000E+02  0.51109989000E-03 0. -1.
     -623   -1    0    0    0    0  0.00000000000E+00  0.00000000000E+00  0.42561509872E-11  0.25126700000E+02  0.25126700000E+02 0. -1.
      622    2    1    2    0    0  0.29474592530E-02 -0.19228462309E-02  0.11875808314E+02  0.11876223011E+02  0.99184174896E-01 0.  0.
       11    1    1    2    0    0 -0.48965523507E-02  0.35201446472E-03  0.12367841180E+00  0.12377685934E+00  0.51109989000E-03 0. -1.
     -623    1    1    2    0    0  0.19490930977E-02  0.15708317662E-02  0.51326314603E-03  0.25126700130E+02  0.25126700000E+02 0. -1.
     -611    1    3    3    0    0 -0.25212950085E-01  0.34926001774E-01  0.34846743009E+01  0.34849548780E+01  0.10000000000E-01 0. -1.
      611    1    3    3    0    0  0.28160409338E-01 -0.36848848005E-01  0.83911340133E+01  0.83912681327E+01  0.10000000000E-01 0. -1.
</event>
<event>
 7   0  0.6206631E-02  0.9118800E+02  0.7818608E-02  0.1180000E+00
       11   -1    0    0    0    0  0.00000000000E+00  0.00000000000E+00  0.11999999989E+02  0.12000000000E+02  0.51109989000E-03 0.  1.
     -623   -1    0    0    0    0  0.00000000000E+00  0.00000000000E+00  0.42561509872E-11  0.25126700000E+02  0.25126700000E+02 0. -1.
      622    2    1    2    0    0  0.13554462665E-01 -0.97058830313E-02  0.11409104797E+02  0.11409374255E+02  0.76620553469E-01 0.  0.
       11    1    1    2    0    0 -0.84044634203E-01 -0.84746892652E-02  0.58444645180E+00  0.59051946381E+00  0.51109989000E-03 0.  1.
     -623    1    1    2    0    0  0.70490171538E-01  0.18180572297E-01  0.64487406123E-02  0.25126806281E+02  0.25126700000E+02 0. -1.
     -611    1    3    3    0    0 -0.12334827821E-01  0.25619072597E-01  0.30553053392E+01  0.30554540089E+01  0.10000000000E-01 0. -1.
      611    1    3    3    0    0  0.25889290486E-01 -0.35324955628E-01  0.83537994575E+01  0.83539202464E+01  0.10000000000E-01 0.  1.
</event>
<event>
 7   0  0.6206631E-02  0.9118800E+02  0.7818608E-02  0.1180000E+00
       11   -1    0    0    0    0  0.00000000000E+00  0.00000000000E+00  0.11999999989E+02  0.12000000000E+02  0.51109989000E-03 0.  1.
     -623   -1    0    0    0    0  0.00000000000E+00  0.00000000000E+00  0.42561509872E-11  0.25126700000E+02  0.25126700000E+02 0.  1.
      622    2    1    2    0    0 -0.86939113979E-02  0.18709465358E-03  0.11967038770E+02  0.11967466446E+02  0.10079984328E+00 0.  0.
       11    1    1    2    0    0 -0.26065965527E-01  0.18550917006E-01 -0.55376337968E-02  0.32473030222E-01  0.51109989000E-03 0.  1.
     -623    1    1    2    0    0  0.34759876925E-01 -0.18738011659E-01  0.38498853396E-01  0.25126760524E+02  0.25126700000E+02 0.  1.
     -611    1    3    3    0    0 -0.18641196362E-02 -0.43173955829E-01  0.87529569027E+01  0.87530692906E+01  0.10000000000E-01 0. -1.
      611    1    3    3    0    0 -0.68297917616E-02  0.43361050483E-01  0.32140818669E+01  0.32143971556E+01  0.10000000000E-01 0.  1.
</event>
<event>
 7   0  0.6206631E-02  0.9118800E+02  0.7818608E-02  0.1180000E+00
       11   -1    0    0    0    0  0.00000000000E+00  0.00000000000E+00  0.11999999989E+02  0.12000000000E+02  0.51109989000E-03 0. -1.
     -623   -1    0    0    0    0  0.00000000000E+00  0.00000000000E+00  0.42561509872E-11  0.25126700000E+02  0.25126700000E+02 0. -1.
      622    2    1    2    0    0 -0.75667541014E-01  0.18330564610E-01  0.11834361484E+02  0.11835216337E+02  0.11904804181E+00 0.  0.
       11    1    1    2    0    0  0.31431230737E-01 -0.64215113926E-01  0.14836880461E+00  0.16469689288E+00  0.51109989000E-03 0. -1.
     -623    1    1    2    0    0  0.44236310277E-01  0.45884549316E-01  0.17269700759E-01  0.25126786770E+02  0.25126700000E+02 0. -1.
     -611    1    3    3    0    0 -0.21138840850E-01  0.31407016051E-01  0.10887725963E+01  0.10894764879E+01  0.10000000000E-01 0.  1.
      611    1    3    3    0    0 -0.54528700163E-01 -0.13076451441E-01  0.10745588887E+02  0.10745739849E+02  0.10000000000E-01 0. -1.
</event>
<event>
 7   0  0.6206631E-02  0.9118800E+02  0.7818608E-02  0.1180000E+00
       11   -1    0    0    0    0  0.00000000000E+00  0.00000000000E+00  0.11999999989E+02  0.12000000000E+02  0.51109989000E-03 0. -1.
     -623   -1    0    0    0    0  0.00000000000E+00  0.00000000000E+00  0.42561509872E-11  0.25126700000E+02  0.25126700000E+02 0.  1.
      622    2    1    2    0    0  0.31000749999E-04  0.26885515626E-02  0.11994812641E+02  0.11995242124E+02  0.10146974038E+00 0.  0.
       11    1    1    2    0    0  0.19013968099E-02 -0.96199344486E-03  0.42230282249E-02  0.47577233774E-02  0.51109989000E-03 0. -1.
     -623    1    1    2    0    0 -0.19323975599E-02 -0.17265581177E-02  0.96432010294E-03  0.25126700152E+02  0.25126700000E+02 0.  1.
     -611    1    3    3    0    0 -0.35841347045E-01 -0.10221928717E-01  0.21222059030E+01  0.21225567094E+01  0.10000000000E-01 0.  1.
      611    1    3    3    0    0  0.35872347795E-01  0.12910480279E-01  0.98726067378E+01  0.98726854151E+01  0.10000000000E-01 0. -1.
</event>
<event>
 7   0  0.6206631E-02  0.9118800E+02  0.7818608E-02  0.1180000E+00
       11   -1    0    0    0    0  0.00000000000E+00  0.00000000000E+00  0.11999999989E+02  0.12000000000E+02  0.51109989000E-03 0. -1.
     -623   -1    0    0    0    0  0.00000000000E+00  0.00000000000E+00  0.42561509872E-11  0.25126700000E+02  0.25126700000E+02 0.  1.
      622    2    1    2    0    0  0.39331482478E-01 -0.41442018648E-01  0.11378584258E+02  0.11379455673E+02  0.12871401135E+00 0.  0.
       11    1    1    2    0    0 -0.84764757824E-02  0.41255417439E-01  0.61909409203E+00  0.62052527436E+00  0.51109989000E-03 0. -1.
     -623    1    1    2    0    0 -0.30855006695E-01  0.18660120875E-03  0.23216392632E-02  0.25126719053E+02  0.25126700000E+02 0.  1.
     -611    1    3    3    0    0  0.34331555395E-02 -0.66620925334E-01  0.30320444883E+01  0.30327947364E+01  0.10000000000E-01 0. -1.
      611    1    3    3    0    0  0.35898326938E-01  0.25178906687E-01  0.83465397696E+01  0.83466609367E+01  0.10000000000E-01 0. -1.
</event>
<event>
 7   0  0.6206631E-02  0.9118800E+02  0.7818608E-02  0.1180000E+00
       11   -1    0    0    0    0  0.00000000000E+00  0.00000000000E+00  0.11999999989E+02  0.12000000000E+02  0.51109989000E-03 0. -1.
     -623   -1    0    0    0    0  0.00000000000E+00  0.00000000000E+00  0.42561509872E-11  0.25126700000E+02  0.25126700000E+02 0.  1.
      622    2    1    2    0    0  0.75871596282E-03 -0.45889841052E-03  0.11989113765E+02  0.11989776755E+02  0.12608321815E+00 0.  0.
       11    1    1    2    0    0  0.23213049260E-03  0.56227197932E-03  0.10192295414E-01  0.10223215898E-01  0.51109989000E-03 0. -1.
     -623    1    1    2    0    0 -0.99084645542E-03 -0.10337356880E-03  0.69392891432E-03  0.25126700029E+02  0.25126700000E+02 0.  1.
     -611    1    3    3    0    0 -0.49117471738E-02 -0.19563390214E-01  0.39469939598E+00  0.39534094739E+00  0.10000000000E-01 0.  1.
      611    1    3    3    0    0  0.56704631366E-02  0.19104491803E-01  0.11594414369E+02  0.11594435807E+02  0.10000000000E-01 0. -1.
</event>
<event>
 7   0  0.6206631E-02  0.9118800E+02  0.7818608E-02  0.1180000E+00
       11   -1    0    0    0    0  0.00000000000E+00  0.00000000000E+00  0.11999999989E+02  0.12000000000E+02  0.51109989000E-03 0.  1.
     -623   -1    0    0    0    0  0.00000000000E+00  0.00000000000E+00  0.42561509872E-11  0.25126700000E+02  0.25126700000E+02 0.  1.
      622    2    1    2    0    0  0.58455903493E-01 -0.13555957605E-02  0.11586837631E+02  0.11587502180E+02  0.10946029294E+00 0.  0.
       11    1    1    2    0    0 -0.54383659560E-01  0.14355601570E-02  0.40889359928E+00  0.41249712728E+00  0.51109989000E-03 0.  1.
     -623    1    1    2    0    0 -0.40722439329E-02 -0.79964396493E-04  0.42687589204E-02  0.25126700693E+02  0.25126700000E+02 0.  1.
     -611    1    3    3    0    0  0.12820273485E-01  0.48837136250E-01  0.35662519294E+01  0.35666233680E+01  0.10000000000E-01 0. -1.
      611    1    3    3    0    0  0.45635630008E-01 -0.50192732011E-01  0.80205857016E+01  0.80208788120E+01  0.10000000000E-01 0.  1.
</event>
<event>
 7   0  0.6206631E-02  0.9118800E+02  0.7818608E-02  0.1180000E+00
       11   -1    0    0    0    0  0.00000000000E+00  0.00000000000E+00  0.11999999989E+02  0.12000000000E+02  0.51109989000E-03 0. -1.
     -623   -1    0    0    0    0  0.00000000000E+00  0.00000000000E+00  0.42561509872E-11  0.25126700000E+02  0.25126700000E+02 0.  1.
      622    2    1    2    0    0  0.26916426093E-01 -0.61166659120E-01  0.65441358692E+01  0.65453093021E+01  0.10437303731E+00 0.  0.
       11    1    1    2    0    0  0.72999084039E-02  0.28145030765E-01  0.54545681479E+01  0.54546456689E+01  0.51109989000E-03 0. -1.
     -623    1    1    2    0    0 -0.34216334497E-01  0.33021628355E-01  0.12959719861E-02  0.25126745029E+02  0.25126700000E+02 0.  1.
     -611    1    3    3    0    0 -0.87679829952E-02 -0.69088872695E-01  0.55583605691E+01  0.55588058399E+01  0.10000000000E-01 0. -1.
      611    1    3    3    0    0  0.35684409088E-01  0.79222135758E-02  0.98577530012E+00  0.98650346216E+00  0.10000000000E-01 0.  1.
</event>
<event>
 7   0  0.6206631E-02  0.9118800E+02  0.7818608E-02  0.1180000E+00
       11   -1    0    0    0    0  0.00000000000E+00  0.00000000000E+00  0.11999999989E+02  0.12000000000E+02  0.51109989000E-03 0. -1.
     -623   -1    0    0    0    0  0.00000000000E+00  0.00000000000E+00  0.42561509872E-11  0.25126700000E+02  0.25126700000E+02 0. -1.
      622    2    1    2    0    0 -0.66697769078E-02  0.66314001471E-02  0.11980194816E+02  0.11980619821E+02  0.10047385647E+00 0.  0.
       11    1    1    2    0    0 -0.15785352119E-02 -0.89907911807E-02  0.17086296974E-01  0.19378567203E-01  0.51109989000E-03 0. -1.
     -623    1    1    2    0    0  0.82483121198E-02  0.23593910337E-02  0.27188756875E-02  0.25126701612E+02  0.25126700000E+02 0. -1.
     -611    1    3    3    0    0 -0.47666328722E-01  0.50207527201E-02  0.89108593525E+01  0.89109938664E+01  0.10000000000E-01 0. -1.
      611    1    3    3    0    0  0.40996551815E-01  0.16106474270E-02  0.30693354639E+01  0.30696259546E+01  0.10000000000E-01 0.  1.
</event>
<event>
 7   0  0.6206631E-02  0.9118800E+02  0.7818608E-02  0.1180000E+00
       11   -1    0    0    0    0  0.00000000000E+00  0.00000000000E+00  0.11999999989E+02  0.12000000000E+02  0.51109989000E-03 0. -1.
     -623   -1    0    0    0    0  0.00000000000E+00  0.00000000000E+00  0.42561509872E-11  0.25126700000E+02  0.25126700000E+02 0.  1.
      622    2    1    2    0    0 -0.14054229636E-01 -0.18220712784E-01  0.10424223203E+02  0.10424316508E+02  0.37626507952E-01 0.  0.
       11    1    1    2    0    0  0.13562929593E-01  0.17926800621E-01  0.15755230428E+01  0.15756834844E+01  0.51109989000E-03 0. -1.
     -623    1    1    2    0    0  0.49130004305E-03  0.29391216251E-03  0.25374332314E-03  0.25126700008E+02  0.25126700000E+02 0.  1.
     -611    1    3    3    0    0  0.87932827224E-03  0.66822077233E-02  0.19214072159E+01  0.19214450589E+01  0.10000000000E-01 0. -1.
      611    1    3    3    0    0 -0.14933557908E-01 -0.24902920507E-01  0.85028159872E+01  0.85028714490E+01  0.10000000000E-01 0.  1.
</event>
<event>
 7   0  0.6206631E-02  0.9118800E+02  0.7818608E-02  0.1180000E+00
       11   -1    0    0    0    0  0.00000000000E+00  0.00000000000E+00  0.11999999989E+02  0.12000000000E+02  0.51109989000E-03 0. -1.
     -623   -1    0    0    0    0  0.00000000000E+00  0.00000000000E+00  0.42561509872E-11  0.25126700000E+02  0.25126700000E+02 0.  1.
      622    2    1    2    0    0  0.18246613643E-02  0.18216238860E-02  0.11993393186E+02  0.11993938093E+02  0.11429878437E+00 0.  0.
       11    1    1    2    0    0 -0.16526949328E-02 -0.17629163530E-03  0.58070818049E-02  0.60618397781E-02  0.51109989000E-03 0. -1.
     -623    1    1    2    0    0 -0.17196643151E-03 -0.16453322507E-02  0.79972107265E-03  0.25126700067E+02  0.25126700000E+02 0.  1.
     -611    1    3    3    0    0  0.31755317601E-01  0.24888029534E-01  0.10337677359E+02  0.10337760927E+02  0.10000000000E-01 0. -1.
      611    1    3    3    0    0 -0.29930656237E-01 -0.23066405648E-01  0.16557158277E+01  0.16561771660E+01  0.10000000000E-01 0.  1.
</event>
<event>
 7   0  0.6206631E-02  0.9118800E+02  0.7818608E-02  0.1180000E+00
       11   -1    0    0    0    0  0.00000000000E+00  0.00000000000E+00  0.11999999989E+02  0.12000000000E+02  0.51109989000E-03 0. -1.
     -623   -1    0    0    0    0  0.00000000000E+00  0.00000000000E+00  0.42561509872E-11  0.25126700000E+02  0.25126700000E+02 0. -1.
      622    2    1    2    0    0  0.70779148083E-03 -0.16060245803E-02  0.11996739966E+02  0.11997401186E+02  0.12594576329E+00 0.  0.
       11    1    1    2    0    0  0.37048180353E-03  0.99008885078E-03  0.23183672413E-02  0.25987655705E-02  0.51109989000E-03 0. -1.
     -623    1    1    2    0    0 -0.10782732844E-02  0.61593572955E-03  0.94165617808E-03  0.25126700048E+02  0.25126700000E+02 0. -1.
     -611    1    3    3    0    0 -0.47750796340E-01 -0.37779230303E-01  0.73106824817E+01  0.73109428774E+01  0.10000000000E-01 0.  1.
      611    1    3    3    0    0  0.48458587820E-01  0.36173205722E-01  0.46860574840E+01  0.46864583086E+01  0.10000000000E-01 0. -1.
</event>
<event>
 7   0  0.6206631E-02  0.9118800E+02  0.7818608E-02  0.1180000E+00
       11   -1    0    0    0    0  0.00000000000E+00  0.00000000000E+00  0.11999999989E+02  0.12000000000E+02  0.51109989000E-03 0. -1.
     -623   -1    0    0    0    0  0.00000000000E+00  0.00000000000E+00  0.42561509872E-11  0.25126700000E+02  0.25126700000E+02 0.  1.
      622    2    1    2    0    0 -0.27881818032E-03 -0.17052087368E-02  0.11995554615E+02  0.11995935707E+02  0.95603176685E-01 0.  0.
       11    1    1    2    0    0 -0.18786219655E-02  0.16155384324E-02  0.31807322669E-02  0.40641685255E-02  0.51109989000E-03 0. -1.
     -623    1    1    2    0    0  0.21574401459E-02  0.89670304352E-04  0.12646414783E-02  0.25126700125E+02  0.25126700000E+02 0.  1.
     -611    1    3    3    0    0 -0.44887197202E-01 -0.14276067385E-01  0.58428711142E+01  0.58430695293E+01  0.10000000000E-01 0.  1.
      611    1    3    3    0    0  0.44608379022E-01  0.12570858649E-01  0.61526835012E+01  0.61528661776E+01  0.10000000000E-01 0. -1.
</event>
<event>
 7   0  0.6206631E-02  0.9118800E+02  0.7818608E-02  0.1180000E+00
       11   -1    0    0    0    0  0.00000000000E+00  0.00000000000E+00  0.11999999989E+02  0.12000000000E+02  0.51109989000E-03 0. -1.
     -623   -1    0    0    0    0  0.00000000000E+00  0.00000000000E+00  0.42561509872E-11  0.25126700000E+02  0.25126700000E+02 0. -1.
      622    2    1    2    0    0  0.88684137342E-02  0.62186946741E-02  0.11945594337E+02  0.11946176765E+02  0.11746461172E+00 0.  0.
       11    1    1    2    0    0  0.39768241838E-02 -0.15681645146E-01  0.51326257214E-01  0.53817980525E-01  0.51109989000E-03 0. -1.
     -623    1    1    2    0    0 -0.12845237918E-01  0.94629504721E-02  0.30793952231E-02  0.25126705254E+02  0.25126700000E+02 0. -1.
     -611    1    3    3    0    0  0.33089622687E-01 -0.45309916566E-02  0.11140096377E+01  0.11145550349E+01  0.10000000000E-01 0.  1.
      611    1    3    3    0    0 -0.24221208953E-01  0.10749686331E-01  0.10831584699E+02  0.10831621731E+02  0.10000000000E-01 0. -1.
</event>
<event>
 7   0  0.6206631E-02  0.9118800E+02  0.7818608E-02  0.1180000E+00
       11   -1    0    0    0    0  0.00000000000E+00  0.00000000000E+00  0.11999999989E+02  0.12000000000E+02  0.51109989000E-03 0. -1.
     -623   -1    0    0    0    0  0.00000000000E+00  0.00000000000E+00  0.42561509872E-11  0.25126700000E+02  0.25126700000E+02 0. -1.
      622    2    1    2    0    0  0.32857801901E-02  0.16470792445E-01  0.11064550418E+02  0.11064935665E+02  0.90792193339E-01 0.  0.
       11    1    1    2    0    0  0.15638570459E-03 -0.14546512563E-01  0.93495071332E+00  0.93506402082E+00  0.51109989000E-03 0. -1.
     -623    1    1    2    0    0 -0.34421658946E-02 -0.19242798819E-02  0.49885747750E-03  0.25126700314E+02  0.25126700000E+02 0. -1.
     -611    1    3    3    0    0  0.86906966022E-02 -0.29113247175E-02  0.10394060829E+02  0.10394069680E+02  0.10000000000E-01 0. -1.
      611    1    3    3    0    0 -0.54049164122E-02  0.19382117162E-01  0.67048958949E+00  0.67086598453E+00  0.10000000000E-01 0.  1.
</event>
<event>
 7   0  0.6206631E-02  0.9118800E+02  0.7818608E-02  0.1180000E+00
       11   -1    0    0    0    0  0.00000000000E+00  0.00000000000E+00  0.11999999989E+02  0.12000000000E+02  0.51109989000E-03 0. -1.
     -623   -1    0    0    0    0  0.00000000000E+00  0.00000000000E+00  0.42561509872E-11  0.25126700000E+02  0.25126700000E+02 0.  1.
      622    2    1    2    0    0 -0.21456959190E-01  0.86427005425E-02  0.79436907889E+01  0.79438717532E+01  0.48373391136E-01 0.  0.
       11    1    1    2    0    0  0.20418074444E-01 -0.10259512681E-01  0.40560637731E+01  0.40561281721E+01  0.51109989000E-03 0. -1.
     -623    1    1    2    0    0  0.10388847453E-02  0.16168121381E-02  0.24542710092E-03  0.25126700075E+02  0.25126700000E+02 0.  1.
     -611    1    3    3    0    0 -0.32800409787E-01  0.14599177002E-01  0.57462431685E+01  0.57463640291E+01  0.10000000000E-01 0. -1.
      611    1    3    3    0    0  0.11343450598E-01 -0.59564764592E-02  0.21974476204E+01  0.21975077242E+01  0.10000000000E-01 0.  1.
</event>
<event>
 7   0  0.6206631E-02  0.9118800E+02  0.7818608E-02  0.1180000E+00
       11   -1    0    0    0    0  0.00000000000E+00  0.00000000000E+00  0.11999999989E+02  0.12000000000E+02  0.51109989000E-03 0.  1.
     -623   -1    0    0    0    0  0.00000000000E+00  0.00000000000E+00  0.42561509872E-11  0.25126700000E+02  0.25126700000E+02 0.  1.
      622    2    1    2    0    0  0.24418135303E-02 -0.21135472701E-01  0.11946681380E+02  0.11947202942E+02  0.10958775960E+00 0.  0.
       11    1    1    2    0    0 -0.30699978887E-01  0.57966053353E-02  0.42529547741E-01  0.52774169736E-01  0.51109989000E-03 0.  1.
     -623    1    1    2    0    0  0.28258165357E-01  0.15338867366E-01  0.10789061515E-01  0.25126722888E+02  0.25126700000E+02 0.  1.
     -611    1    3    3    0    0  0.23225321684E-01 -0.58410239721E-01  0.85825424887E+01  0.85827784977E+01  0.10000000000E-01 0.  1.
      611    1    3    3    0    0 -0.20783508153E-01  0.37274767020E-01  0.33641388912E+01  0.33644244444E+01  0.10000000000E-01 0. -1.
</event>
<event>
 7   0  0.6206631E-02  0.9118800E+02  0.7818608E-02  0.1180000E+00
       11   -1    0    0    0    0  0.00000000000E+00  0.00000000000E+00  0.11999999989E+02  0.12000000000E+02  0.51109989000E-03 0. -1.
     -623   -1    0    0    0    0  0.00000000000E+00  0.00000000000E+00  0.42561509872E-11  0.25126700000E+02  0.25126700000E+02 0.  1.
      622    2    1    2    0    0  0.78056878199E-01  0.72328134791E-02  0.38342514732E+01  0.38356440989E+01  0.67350607512E-01 0.  0.
       11    1    1    2    0    0 -0.82628622310E-01  0.42439314920E-03  0.81639360874E+01  0.81643542531E+01  0.51109989000E-03 0. -1.
     -623    1    1    2    0    0  0.45717441122E-02 -0.76572066282E-02  0.18124285751E-02  0.25126701648E+02  0.25126700000E+02 0.  1.
     -611    1    3    3    0    0  0.77205911432E-01  0.19841947593E-01  0.35686150137E+01  0.35695192354E+01  0.10000000000E-01 0. -1.
      611    1    3    3    0    0  0.85096676714E-03 -0.12609134114E-01  0.26563645943E+00  0.26612486352E+00  0.10000000000E-01 0. -1.
</event>
<event>
 7   0  0.6206631E-02  0.9118800E+02  0.7818608E-02  0.1180000E+00
       11   -1    0    0    0    0  0.00000000000E+00  0.00000000000E+00  0.11999999989E+02  0.12000000000E+02  0.51109989000E-03 0.  1.
     -623   -1    0    0    0    0  0.00000000000E+00  0.00000000000E+00  0.42561509872E-11  0.25126700000E+02  0.25126700000E+02 0. -1.
      622    2    1    2    0    0 -0.69819491904E-03 -0.15561219152E-01  0.10100314466E+02  0.10101205677E+02  0.13327111124E+00 0.  0.
       11    1    1    2    0    0 -0.34453712377E-02  0.17831135899E-01  0.18987069389E+01  0.18987938596E+01  0.51109989000E-03 0.  1.
     -623    1    1    2    0    0  0.41435661567E-02 -0.22699167464E-02  0.97858455312E-03  0.25126700463E+02  0.25126700000E+02 0. -1.
     -611    1    3    3    0    0  0.45152161549E-01 -0.39115058439E-01  0.25919455408E+01  0.25926531569E+01  0.10000000000E-01 0. -1.
      611    1    3    3    0    0 -0.45850356468E-01  0.23553839287E-01  0.75083689248E+01  0.75085525203E+01  0.10000000000E-01 0.  1.
</event>
<event>
 7   0  0.6206631E-02  0.9118800E+02  0.7818608E-02  0.1180000E+00
       11   -1    0    0    0    0  0.00000000000E+00  0.00000000000E+00  0.11999999989E+02  0.12000000000E+02  0.51109989000E-03 0.  1.
     -623   -1    0    0    0    0  0.00000000000E+00  0.00000000000E+00  0.42561509872E-11  0.25126700000E+02  0.25126700000E+02 0. -1.
      622    2    1    2    0    0  0.71463263087E-03  0.28977018192E-02  0.11968915150E+02  0.11969917799E+02  0.15489782413E+00 0.  0.
       11    1    1    2    0    0  0.11957443330E-02 -0.48195017675E-04  0.30053787318E-01  0.30081946124E-01  0.51109989000E-03 0.  1.
     -623    1    1    2    0    0 -0.19103769639E-02 -0.28495068015E-02  0.10310521265E-02  0.25126700255E+02  0.25126700000E+02 0. -1.
     -611    1    3    3    0    0 -0.62491340402E-01 -0.59112896080E-02  0.25886330046E+01  0.25894132430E+01  0.10000000000E-01 0. -1.
      611    1    3    3    0    0  0.63205973033E-01  0.88089914272E-02  0.93802821451E+01  0.93805045555E+01  0.10000000000E-01 0.  1.
</event>
<event>
 7   0  0.6206631E-02  0.9118800E+02  0.7818608E-02  0.1180000E+00
       11   -1    0    0    0    0  0.00000000000E+00  0.00000000000E+00  0.11999999989E+02  0.12000000000E+02  0.51109989000E-03 0.  1.
     -623   -1    0    0    0    0  0.00000000000E+00  0.00000000000E+00  0.42561509872E-11  0.25126700000E+02  0.25126700000E+02 0. -1.
      622    2    1    2    0    0 -0.15263696974E-01  0.59293350992E-02  0.11862041827E+02  0.11862319378E+02  0.79476854717E-01 0.  0.
       11    1    1    2    0    0 -0.79704304892E-02  0.71685140730E-02  0.13724750127E+00  0.13766645628E+00  0.51109989000E-03 0.  1.
     -623    1    1    2    0    0  0.23234127463E-01 -0.13097849172E-01  0.71066048132E-03  0.25126714166E+02  0.25126700000E+02 0. -1.
     -611    1    3    3    0    0  0.89649776518E-02  0.17099982110E-02  0.37109695793E+00  0.37134383946E+00  0.10000000000E-01 0. -1.
      611    1    3    3    0    0 -0.24228674626E-01  0.42193368881E-02  0.11490944869E+02  0.11490975538E+02  0.10000000000E-01 0.  1.
</event>
<event>
 7   0  0.6206631E-02  0.9118800E+02  0.7818608E-02  0.1180000E+00
       11   -1    0    0    0    0  0.00000000000E+00  0.00000000000E+00  0.11999999989E+02  0.12000000000E+02  0.51109989000E-03 0.  1.
     -623   -1    0    0    0    0  0.00000000000E+00  0.00000000000E+00  0.42561509872E-11  0.25126700000E+02  0.25126700000E+02 0.  1.
      622    2    1    2    0    0  0.58586590611E-02  0.15704339483E-01  0.11904335172E+02  0.11904759761E+02  0.99136905179E-01 0.  0.
       11    1    1    2    0    0  0.11316183742E-01  0.33795557656E-02  0.94490533608E-01  0.95227094759E-01  0.51109989000E-03 0.  1.
     -623    1    1    2    0    0 -0.17174842803E-01 -0.19083895248E-01  0.11742834823E-02  0.25126713144E+02  0.25126700000E+02 0.  1.
     -611    1    3    3    0    0  0.51343777108E-01  0.44169382371E-02  0.65243173532E+01  0.65245285361E+01  0.10000000000E-01 0. -1.
      611    1    3    3    0    0 -0.45485118047E-01  0.11287401246E-01  0.53800178188E+01  0.53802312248E+01  0.10000000000E-01 0.  1.
</event>
<event>
 7   0  0.6206631E-02  0.9118800E+02  0.7818608E-02  0.1180000E+00
       11   -1    0    0    0    0  0.00000000000E+00  0.00000000000E+00  0.11999999989E+02  0.12000000000E+02  0.51109989000E-03 0. -1.
     -623   -1    0    0    0    0  0.00000000000E+00  0.00000000000E+00  0.42561509872E-11  0.25126700000E+02  0.25126700000E+02 0.  1.
      622    2    1    2    0    0 -0.45948463224E-03  0.12372495761E-02  0.11710334080E+02  0.11710588218E+02  0.77138835114E-01 0.  0.
       11    1    1    2    0    0  0.22701850903E-03 -0.23326932224E-02  0.28940181441E+00  0.28941175581E+00  0.51109989000E-03 0. -1.
     -623    1    1    2    0    0  0.23246612321E-03  0.10954436463E-02  0.26409466927E-03  0.25126700026E+02  0.25126700000E+02 0.  1.
     -611    1    3    3    0    0 -0.25141577004E-01 -0.80294597261E-02  0.18630654794E+01  0.18632792468E+01  0.10000000000E-01 0.  1.
      611    1    3    3    0    0  0.24682092372E-01  0.92667093022E-02  0.98472686007E+01  0.98473089711E+01  0.10000000000E-01 0. -1.
</event>
<event>
 7   0  0.6206631E-02  0.9118800E+02  0.7818608E-02  0.1180000E+00
       11   -1    0    0    0    0  0.00000000000E+00  0.00000000000E+00  0.11999999989E+02  0.12000000000E+02  0.51109989000E-03 0. -1.
     -623   -1    0    0    0    0  0.00000000000E+00  0.00000000000E+00  0.42561509872E-11  0.25126700000E+02  0.25126700000E+02 0. -1.
      622    2    1    2    0    0 -0.21233733141E-01 -0.49074239211E-01  0.88460364628E+01  0.88464679167E+01  0.69096649036E-01 0.  0.
       11    1    1    2    0    0  0.18549561773E-01  0.48964544434E-01  0.31530971642E+01  0.31535319248E+01  0.51109989000E-03 0. -1.
     -623    1    1    2    0    0  0.26841713676E-02  0.10969477655E-03  0.86636215950E-03  0.25126700159E+02  0.25126700000E+02 0. -1.
     -611    1    3    3    0    0  0.75749856565E-02 -0.31413186125E-01  0.16576839401E+01  0.16580290148E+01  0.10000000000E-01 0.  1.
      611    1    3    3    0    0 -0.28808718797E-01 -0.17661053086E-01  0.71883525227E+01  0.71884389019E+01  0.10000000000E-01 0. -1.
</event>
<event>
 7   0  0.6206631E-02  0.9118800E+02  0.7818608E-02  0.1180000E+00
       11   -1    0    0    0    0  0.00000000000E+00  0.00000000000E+00  0.11999999989E+02  0.12000000000E+02  0.51109989000E-03 0.  1.
     -623   -1    0    0    0    0  0.00000000000E+00  0.00000000000E+00  0.42561509872E-11  0.25126700000E+02  0.25126700000E+02 0.  1.
      622    2    1    2    0    0  0.11196228461E-01 -0.49638070835E-02  0.11937557566E+02  0.11938044209E+02  0.10709291794E+00 0.  0.
       11    1    1    2    0    0 -0.49247881383E-02  0.10759820648E-01  0.60811554831E-01  0.61954287202E-01  0.51109989000E-03 0.  1.
     -623    1    1    2    0    0 -0.62714403230E-02 -0.57960135642E-02  0.16308682854E-02  0.25126701504E+02  0.25126700000E+02 0.  1.
     -611    1    3    3    0    0  0.43500923734E-01 -0.34983586551E-01  0.85008230780E+01  0.85010122448E+01  0.10000000000E-01 0.  1.
      611    1    3    3    0    0 -0.32304695272E-01  0.30019779467E-01  0.34367344880E+01  0.34370319640E+01  0.10000000000E-01 0. -1.
</event>
<event>
 7   0  0.6206631E-02  0.9118800E+02  0.7818608E-02  0.1180000E+00
       11   -1    0    0    0    0  0.00000000000E+00  0.00000000000E+00  0.11999999989E+02  0.12000000000E+02  0.51109989000E-03 0.  1.
     -623   -1    0    0    0    0  0.00000000000E+00  0.00000000000E+00  0.42561509872E-11  0.25126700000E+02  0.25126700000E+02 0.  1.
      622    2    1    2    0    0  0.33548365703E-01 -0.20087478155E-01  0.99132491396E+01  0.99136035153E+01  0.74142792836E-01 0.  0.
       11    1    1    2    0    0 -0.33474368122E-01  0.21006730885E-01  0.20860220754E+01  0.20863964572E+01  0.51109989000E-03 0.  1.
     -623    1    1    2    0    0 -0.73997581276E-04 -0.91925273018E-03  0.72877397468E-03  0.25126700027E+02  0.25126700000E+02 0.  1.
     -611    1    3    3    0    0 -0.17628333566E-01 -0.23623318914E-01  0.41994432807E+01  0.41995586300E+01  0.10000000000E-01 0. -1.
      611    1    3    3    0    0  0.51176699269E-01  0.35358407587E-02  0.57138058589E+01  0.57140448852E+01  0.10000000000E-01 0.  1.
</event>
<event>
 7   0  0.6206631E-02  0.9118800E+02  0.7818608E-02  0.1180000E+00
       11   -1    0    0    0    0  0.00000000000E+00  0.00000000000E+00  0.11999999989E+02  0.12000000000E+02  0.51109989000E-03 0. -1.
     -623   -1    0    0    0    0  0.00000000000E+00  0.00000000000E+00  0.42561509872E-11  0.25126700000E+02  0.25126700000E+02 0.  1.
      622    2    1    2    0    0  0.84273148978E-02  0.36160372105E-02  0.10899764825E+02  0.10900381209E+02  0.11555587300E+00 0.  0.
       11    1    1    2    0    0  0.34450741096E-02  0.11690902816E-01  0.10995436486E+01  0.10996113142E+01  0.51109989000E-03 0. -1.
     -623    1    1    2    0    0 -0.11872389007E-01 -0.15306940027E-01  0.69151515422E-03  0.25126707477E+02  0.25126700000E+02 0.  1.
     -611    1    3    3    0    0  0.51205065750E-01  0.96035726950E-03  0.88024085146E+01  0.88025631801E+01  0.10000000000E-01 0. -1.
      611    1    3    3    0    0 -0.42777750852E-01  0.26556799410E-02  0.20973563107E+01  0.20978180290E+01  0.10000000000E-01 0.  1.
</event>
<event>
 7   0  0.6206631E-02  0.9118800E+02  0.7818608E-02  0.1180000E+00
       11   -1    0    0    0    0  0.00000000000E+00  0.00000000000E+00  0.11999999989E+02  0.12000000000E+02  0.51109989000E-03 0.  1.
     -623   -1    0    0    0    0  0.00000000000E+00  0.00000000000E+00  0.42561509872E-11  0.25126700000E+02  0.25126700000E+02 0.  1.
      622    2    1    2    0    0  0.13779188281E-02 -0.73057545258E-02  0.11877805540E+02  0.11877965050E+02  0.61106656282E-01 0.  0.
       11    1    1    2    0    0 -0.35495505117E-02  0.75352100632E-02  0.12174918857E+00  0.12203485092E+00  0.51109989000E-03 0.  1.
     -623    1    1    2    0    0  0.21716316836E-02 -0.22945553738E-03  0.44526086623E-03  0.25126700099E+02  0.25126700000E+02 0.  1.
     -611    1    3    3    0    0 -0.19274664260E-01  0.16543928376E-01  0.65339365060E+01  0.65339935322E+01  0.10000000000E-01 0.  1.
      611    1    3    3    0    0  0.20652583088E-01 -0.23849682902E-01  0.53438690337E+01  0.53439715181E+01  0.10000000000E-01 0. -1.
</event>
<event>
 7   0  0.6206631E-02  0.9118800E+02  0.7818608E-02  0.1180000E+00
       11   -1    0    0    0    0  0.00000000000E+00  0.00000000000E+00  0.11999999989E+02  0.12000000000E+02  0.51109989000E-03 0. -1.
     -623   -1    0    0    0    0  0.00000000000E+00  0.00000000000E+00  0.42561509872E-11  0.25126700000E+02  0.25126700000E+02 0. -1.
      622    2    1    2    0    0 -0.18211904468E-01  0.72787456723E-02  0.11558149824E+02  0.11558643710E+02  0.10503526633E+00 0.  0.
       11    1    1    2    0    0  0.21989599346E-01  0.21050321181E-02  0.44080077515E+00  0.44135423215E+00  0.51109989000E-03 0. -1.
     -623    1    1    2    0    0 -0.37776948776E-02 -0.93837777904E-02  0.10493902414E-02  0.25126702058E+02  0.25126700000E+02 0. -1.
     -611    1    3    3    0    0 -0.12514470430E-01  0.19745410728E-01  0.67226056579E+00  0.67274122925E+00  0.10000000000E-01 0.  1.
      611    1    3    3    0    0 -0.56974340384E-02 -0.12466665056E-01  0.10885889258E+02  0.10885902480E+02  0.10000000000E-01 0. -1.
</event>
<event>
 7   0  0.6206631E-02  0.9118800E+02  0.7818608E-02  0.1180000E+00
       11   -1    0    0    0    0  0.00000000000E+00  0.00000000000E+00  0.11999999989E+02  0.12000000000E+02  0.51109989000E-03 0. -1.
     -623   -1    0    0    0    0  0.00000000000E+00  0.00000000000E+00  0.42561509872E-11  0.25126700000E+02  0.25126700000E+02 0. -1.
      622    2    1    2    0    0 -0.43287423351E-01  0.21429091437E-01  0.11105890996E+02  0.11106081510E+02  0.43573998391E-01 0.  0.
       11    1    1    2    0    0  0.40375252024E-01 -0.21128138632E-01  0.89275588779E+00  0.89391828241E+00  0.51109989000E-03 0. -1.
     -623    1    1    2    0    0  0.29121713280E-02 -0.30095280562E-03  0.13531051205E-02  0.25126700207E+02  0.25126700000E+02 0. -1.
     -611    1    3    3    0    0 -0.27415319240E-01  0.12873504755E-01  0.95577488418E+01  0.95578020616E+01  0.10000000000E-01 0. -1.
      611    1    3    3    0    0 -0.15872104112E-01  0.85555866823E-02  0.15481421542E+01  0.15482794488E+01  0.10000000000E-01 0.  1.
</event>
<event>
 7   0  0.6206631E-02  0.9118800E+02  0.7818608E-02  0.1180000E+00
       11   -1    0    0    0    0  0.00000000000E+00  0.00000000000E+00  0.11999999989E+02  0.12000000000E+02  0.51109989000E-03 0.  1.
     -623   -1    0    0    0    0  0.00000000000E+00  0.00000000000E+00  0.42561509872E-11  0.25126700000E+02  0.25126700000E+02 0. -1.
      622    2    1    2    0    0 -0.67784728708E-02  0.60073111794E-02  0.11747702274E+02  0.11748344061E+02  0.12246387967E+00 0.  0.
       11    1    1    2    0    0  0.58035771008E-02 -0.35053864030E-02  0.25156391585E+00  0.25165578520E+00  0.51109989000E-03 0.  1.
     -623    1    1    2    0    0  0.97489576998E-03 -0.25019247764E-02  0.73379881139E-03  0.25126700154E+02  0.25126700000E+02 0. -1.
     -611    1    3    3    0    0 -0.89781932930E-02 -0.57204718117E-01  0.56347571449E+01  0.56350635373E+01  0.10000000000E-01 0. -1.
      611    1    3    3    0    0  0.21997204222E-02  0.63212029296E-01  0.61129451296E+01  0.61132805233E+01  0.10000000000E-01 0.  1.
</event>
<event>
 7   0  0.6206631E-02  0.9118800E+02  0.7818608E-02  0.1180000E+00
       11   -1    0    0    0    0  0.00000000000E+00  0.00000000000E+00  0.11999999989E+02  0.12000000000E+02  0.51109989000E-03 0. -1.
     -623   -1    0    0    0    0  0.00000000000E+00  0.00000000000E+00  0.42561509872E-11  0.25126700000E+02  0.25126700000E+02 0.  1.
      622    2    1    2    0    0  0.23465673399E-01  0.64779917116E-02  0.10967680550E+02  0.10968209066E+02  0.10488508429E+00 0.  0.
       11    1    1    2    0    0 -0.10562592412E-01  0.16876223012E-01  0.10315845281E+01  0.10317767564E+01  0.51109989000E-03 0. -1.
     -623    1    1    2    0    0 -0.12903080988E-01 -0.23354214724E-01  0.73491123044E-03  0.25126714177E+02  0.25126700000E+02 0.  1.
     -611    1    3    3    0    0  0.32292364649E-01 -0.30382161604E-01  0.91175971973E+01  0.91177104870E+01  0.10000000000E-01 0. -1.
      611    1    3    3    0    0 -0.88266912498E-02  0.36860153316E-01  0.18500833525E+01  0.18504985794E+01  0.10000000000E-01 0. -1.
</event>
<event>
 7   0  0.6206631E-02  0.9118800E+02  0.7818608E-02  0.1180000E+00
       11   -1    0    0    0    0  0.00000000000E+00  0.00000000000E+00  0.11999999989E+02  0.12000000000E+02  0.51109989000E-03 0.  1.
     -623   -1    0    0    0    0  0.00000000000E+00  0.00000000000E+00  0.42561509872E-11  0.25126700000E+02  0.25126700000E+02 0. -1.
      622    2    1    2    0    0 -0.46730784932E-01 -0.71304322574E-02  0.10829898408E+02  0.10830627234E+02  0.11641371121E+00 0.  0.
       11    1    1    2    0    0  0.60995123775E-01  0.29538437593E-01  0.11673929504E+01  0.11693585790E+01  0.51109989000E-03 0.  1.
     -623    1    1    2    0    0 -0.14264338843E-01 -0.22408005336E-01  0.27086306888E-02  0.25126714187E+02  0.25126700000E+02 0. -1.
     -611    1    3    3    0    0 -0.37861022805E-01 -0.15406936420E-01  0.12363522641E+01  0.12370682081E+01  0.10000000000E-01 0. -1.
      611    1    3    3    0    0 -0.88697621275E-02  0.82765041629E-02  0.95935461440E+01  0.95935590262E+01  0.10000000000E-01 0.  1.
</event>
<event>
 7   0  0.6206631E-02  0.9118800E+02  0.7818608E-02  0.1180000E+00
       11   -1    0    0    0    0  0.00000000000E+00  0.00000000000E+00  0.11999999989E+02  0.12000000000E+02  0.51109989000E-03 0.  1.
     -623   -1    0    0    0    0  0.00000000000E+00  0.00000000000E+00  0.42561509872E-11  0.25126700000E+02  0.25126700000E+02 0.  1.
      622    2    1    2    0    0  0.91477980275E-02  0.64156244318E-02  0.11876701722E+02  0.11877137395E+02  0.10111412474E+00 0.  0.
       11    1    1    2    0    0 -0.61842483472E-02  0.42794532865E-02  0.12262868880E+00  0.12286014483E+00  0.51109989000E-03 0.  1.
     -623    1    1    2    0    0 -0.29635496802E-02 -0.10695077718E-01  0.66957809531E-03  0.25126702460E+02  0.25126700000E+02 0.  1.
     -611    1    3    3    0    0  0.72335840624E-02  0.51369531331E-01  0.77029308130E+01  0.77031119856E+01  0.10000000000E-01 0. -1.
      611    1    3    3    0    0  0.19142139650E-02 -0.44953906899E-01  0.41737709093E+01  0.41740254097E+01  0.10000000000E-01 0.  1.
</event>
<event>
 7   0  0.6206631E-02  0.9118800E+02  0.7818608E-02  0.1180000E+00
       11   -1    0    0    0    0  0.00000000000E+00  0.00000000000E+00  0.11999999989E+02  0.12000000000E+02  0.51109989000E-03 0. -1.
     -623   -1    0    0    0    0  0.00000000000E+00  0.00000000000E+00  0.42561509872E-11  0.25126700000E+02  0.25126700000E+02 0. -1.
      622    2    1    2    0    0 -0.92242058209E-02  0.25762160062E-01  0.11182755464E+02  0.11183505302E+02  0.12657918890E+00 0.  0.
       11    1    1    2    0    0  0.15786036120E-01  0.55684458361E-02  0.81630251679E+00  0.81647429027E+00  0.51109989000E-03 0. -1.
     -623    1    1    2    0    0 -0.65618302986E-02 -0.31330605898E-01  0.94200791736E-03  0.25126720408E+02  0.25126700000E+02 0. -1.
     -611    1    3    3    0    0  0.35445089468E-01 -0.28741937179E-01  0.69024726240E+01  0.69026307143E+01  0.10000000000E-01 0.  1.
      611    1    3    3    0    0 -0.44669295289E-01  0.54504097241E-01  0.42802828404E+01  0.42808745878E+01  0.10000000000E-01 0. -1.
</event>
<event>
 7   0  0.6206631E-02  0.9118800E+02  0.7818608E-02  0.1180000E+00
       11   -1    0    0    0    0  0.00000000000E+00  0.00000000000E+00  0.11999999989E+02  0.12000000000E+02  0.51109989000E-03 0.  1.
     -623   -1    0    0    0    0  0.00000000000E+00  0.00000000000E+00  0.42561509872E-11  0.25126700000E+02  0.25126700000E+02 0.  1.
      622    2    1    2    0    0  0.82008829913E-02 -0.78582918144E-03  0.11295131936E+02  0.11295738964E+02  0.11681365049E+00 0.  0.
       11    1    1    2    0    0 -0.88394529450E-02 -0.37571954467E-02  0.70419492363E+00  0.70426060811E+00  0.51109989000E-03 0.  1.
     -623    1    1    2    0    0  0.63856995373E-03  0.45430246281E-02  0.67312986312E-03  0.25126700428E+02  0.25126700000E+02 0.  1.
     -611    1    3    3    0    0  0.44545564155E-01 -0.12204250277E-01  0.97192906408E+01  0.97194055276E+01  0.10000000000E-01 0.  1.
      611    1    3    3    0    0 -0.36344681164E-01  0.11418421096E-01  0.15758412949E+01  0.15763334364E+01  0.10000000000E-01 0. -1.
</event>
<event>
 7   0  0.6206631E-02  0.9118800E+02  0.7818608E-02  0.1180000E+00
       11   -1    0    0    0    0  0.00000000000E+00  0.00000000000E+00  0.11999999989E+02  0.12000000000E+02  0.51109989000E-03 0. -1.
     -623   -1    0    0    0    0  0.00000000000E+00  0.00000000000E+00  0.42561509872E-11  0.25126700000E+02  0.25126700000E+02 0. -1.
      622    2    1    2    0    0  0.78152058137E-03  0.22687830293E-01  0.99818855502E+01  0.99826219631E+01  0.11910823979E+00 0.  0.
       11    1    1    2    0    0 -0.31551850040E-02 -0.26957963754E-01  0.20171948868E+01  0.20173775451E+01  0.51109989000E-03 0. -1.
     -623    1    1    2    0    0  0.23736644226E-02  0.42701334612E-02  0.91955214275E-03  0.25126700492E+02  0.25126700000E+02 0. -1.
     -611    1    3    3    0    0 -0.16448426483E-01  0.55499113430E-01  0.27167359186E+01  0.27173709268E+01  0.10000000000E-01 0.  1.
      611    1    3    3    0    0  0.17229947064E-01 -0.32811283137E-01  0.72651496316E+01  0.72652510363E+01  0.10000000000E-01 0. -1.
</event>
<event>
 7   0  0.6206631E-02  0.9118800E+02  0.7818608E-02  0.1180000E+00
       11   -1    0    0    0    0  0.00000000000E+00  0.00000000000E+00  0.11999999989E+02  0.12000000000E+02  0.51109989000E-03 0.  1.
     -623   -1    0    0    0    0  0.00000000000E+00  0.00000000000E+00  0.42561509872E-11  0.25126700000E+02  0.25126700000E+02 0. -1.
      622    2    1    2    0    0  0.19801599587E+00  0.18821047504E-01  0.10289962431E+02  0.10292410204E+02  0.10400201461E+00 0.  0.
       11    1    1    2    0    0 -0.21419272478E+00 -0.13373204201E-01  0.16940389864E+01  0.17075789043E+01  0.51109989000E-03 0.  1.
     -623    1    1    2    0    0  0.16176728905E-01 -0.54478433033E-02  0.15998571736E-01  0.25126710891E+02  0.25126700000E+02 0. -1.
     -611    1    3    3    0    0  0.20227885558E+00  0.19111729826E-02  0.89118029498E+01  0.89141041168E+01  0.10000000000E-01 0.  1.
      611    1    3    3    0    0 -0.42628597087E-02  0.16909874521E-01  0.13781594812E+01  0.13783060877E+01  0.10000000000E-01 0. -1.
</event>
<event>
 7   0  0.6206631E-02  0.9118800E+02  0.7818608E-02  0.1180000E+00
       11   -1    0    0    0    0  0.00000000000E+00  0.00000000000E+00  0.11999999989E+02  0.12000000000E+02  0.51109989000E-03 0.  1.
     -623   -1    0    0    0    0  0.00000000000E+00  0.00000000000E+00  0.42561509872E-11  0.25126700000E+02  0.25126700000E+02 0. -1.
      622    2    1    2    0    0  0.41477626369E-02  0.14509018231E-03  0.11890020839E+02  0.11890498230E+02  0.10646766358E+00 0.  0.
       11    1    1    2    0    0  0.28207521855E-02 -0.23300830191E-02  0.10943837004E+00  0.10950070315E+00  0.51109989000E-03 0.  1.
     -623    1    1    2    0    0 -0.69685148224E-02  0.21849928368E-02  0.54077962465E-03  0.25126701067E+02  0.25126700000E+02 0. -1.
     -611    1    3    3    0    0  0.29884986803E-01 -0.22863815213E-01  0.18342820446E+01  0.18346952023E+01  0.10000000000E-01 0. -1.
      611    1    3    3    0    0 -0.25737224166E-01  0.23008905395E-01  0.10055738795E+02  0.10055803027E+02  0.10000000000E-01 0.  1.
</event>
<event>
 7   0  0.6206631E-02  0.9118800E+02  0.7818608E-02  0.1180000E+00
       11   -1    0    0    0    0  0.00000000000E+00  0.00000000000E+00  0.11999999989E+02  0.12000000000E+02  0.51109989000E-03 0.  1.
     -623   -1    0    0    0    0  0.00000000000E+00  0.00000000000E+00  0.42561509872E-11  0.25126700000E+02  0.25126700000E+02 0.  1.
      622    2    1    2    0    0 -0.81784527007E-01 -0.33400144620E-02  0.83492721167E+01  0.83503833825E+01  0.10889394355E+00 0.  0.
       11    1    1    2    0    0  0.78986575091E-01 -0.16652647691E-02  0.36487606393E+01  0.36496158862E+01  0.51109989000E-03 0.  1.
     -623    1    1    2    0    0  0.27979519157E-02  0.50052792310E-02  0.19672330372E-02  0.25126700731E+02  0.25126700000E+02 0.  1.
     -611    1    3    3    0    0 -0.16618993719E-01  0.46803273088E-01  0.24000007810E+01  0.24005354582E+01  0.10000000000E-01 0. -1.
      611    1    3    3    0    0 -0.65165533288E-01 -0.50143287550E-01  0.59492713357E+01  0.59498479243E+01  0.10000000000E-01 0.  1.
</event>
<event>
 7   0  0.6206631E-02  0.9118800E+02  0.7818608E-02  0.1180000E+00
       11   -1    0    0    0    0  0.00000000000E+00  0.00000000000E+00  0.11999999989E+02  0.12000000000E+02  0.51109989000E-03 0.  1.
     -623   -1    0    0    0    0  0.00000000000E+00  0.00000000000E+00  0.42561509872E-11  0.25126700000E+02  0.25126700000E+02 0.  1.
      622    2    1    2    0    0 -0.90399083848E-02  0.53853208978E-02  0.91972314870E+01  0.91976304246E+01  0.85015770857E-01 0.  0.
       11    1    1    2    0    0  0.87399025461E-03 -0.12132672010E-02  0.28023674534E+01  0.28023678989E+01  0.51109989000E-03 0.  1.
     -623    1    1    2    0    0  0.81659181302E-02 -0.41720536969E-02  0.40104878569E-03  0.25126701676E+02  0.25126700000E+02 0.  1.
     -611    1    3    3    0    0  0.68111733222E-02 -0.29025108309E-01  0.68479000012E+01  0.68479722017E+01  0.10000000000E-01 0. -1.
      611    1    3    3    0    0 -0.15851081707E-01  0.34410429207E-01  0.23493314858E+01  0.23496582229E+01  0.10000000000E-01 0.  1.
</event>
<event>
 7   0  0.6206631E-02  0.9118800E+02  0.7818608E-02  0.1180000E+00
       11   -1    0    0    0    0  0.00000000000E+00  0.00000000000E+00  0.11999999989E+02  0.12000000000E+02  0.51109989000E-03 0. -1.
     -623   -1    0    0    0    0  0.00000000000E+00  0.00000000000E+00  0.42561509872E-11  0.25126700000E+02  0.25126700000E+02 0.  1.
      622    2    1    2    0    0  0.25028599514E-01  0.94312168121E-02  0.79526019867E+01  0.79528535301E+01  0.57319576997E-01 0.  0.
       11    1    1    2    0    0 -0.20113108487E-01 -0.30939127510E-01  0.40469685062E+01  0.40471367802E+01  0.51109989000E-03 0. -1.
     -623    1    1    2    0    0 -0.49154910276E-02  0.21507910698E-01  0.42949621903E-03  0.25126709690E+02  0.25126700000E+02 0.  1.
     -611    1    3    3    0    0 -0.96684523624E-02 -0.13470647624E-01  0.18366271346E+01  0.18367292040E+01  0.10000000000E-01 0.  1.
      611    1    3    3    0    0  0.34697051877E-01  0.22901864436E-01  0.61159748521E+01  0.61161243261E+01  0.10000000000E-01 0. -1.
</event>
<event>
 7   0  0.6206631E-02  0.9118800E+02  0.7818608E-02  0.1180000E+00
       11   -1    0    0    0    0  0.00000000000E+00  0.00000000000E+00  0.11999999989E+02  0.12000000000E+02  0.51109989000E-03 0.  1.
     -623   -1    0    0    0    0  0.00000000000E+00  0.00000000000E+00  0.42561509872E-11  0.25126700000E+02  0.25126700000E+02 0. -1.
      622    2    1    2    0    0 -0.15094036151E-02  0.20572293603E-02  0.11994692976E+02  0.11995139274E+02  0.10344127824E+00 0.  0.
       11    1    1    2    0    0 -0.74626364966E-03 -0.10345079915E-02  0.46623015084E-02  0.48605961303E-02  0.51109989000E-03 0.  1.
     -623    1    1    2    0    0  0.22556672648E-02 -0.10227213688E-02  0.64471184013E-03  0.25126700130E+02  0.25126700000E+02 0. -1.
     -611    1    3    3    0    0 -0.24947193279E-01 -0.28931679268E-01  0.21380661606E+01  0.21384308059E+01  0.10000000000E-01 0.  1.
      611    1    3    3    0    0  0.23437789664E-01  0.30988908628E-01  0.98566268152E+01  0.98567084676E+01  0.10000000000E-01 0.  1.
</event>
<event>
 7   0  0.6206631E-02  0.9118800E+02  0.7818608E-02  0.1180000E+00
       11   -1    0    0    0    0  0.00000000000E+00  0.00000000000E+00  0.11999999989E+02  0.12000000000E+02  0.51109989000E-03 0.  1.
     -623   -1    0    0    0    0  0.00000000000E+00  0.00000000000E+00  0.42561509872E-11  0.25126700000E+02  0.25126700000E+02 0. -1.
      622    2    1    2    0    0 -0.69631714551E-02 -0.27444970658E-02  0.11888304707E+02  0.11888791450E+02  0.10731884034E+00 0.  0.
       11    1    1    2    0    0  0.16918683889E-02 -0.19505818674E-02  0.11117639767E+00  0.11120755284E+00  0.51109989000E-03 0.  1.
     -623    1    1    2    0    0  0.52713030661E-02  0.46950789332E-02  0.51888492723E-03  0.25126700997E+02  0.25126700000E+02 0. -1.
     -611    1    3    3    0    0 -0.18834264472E-01 -0.16301286959E-01  0.11422029366E+02  0.11422060905E+02  0.10000000000E-01 0.  1.
      611    1    3    3    0    0  0.11871093017E-01  0.13556789893E-01  0.46627534011E+00  0.46673054560E+00  0.10000000000E-01 0.  1.
</event>
<event>
 7   0  0.6206631E-02  0.9118800E+02  0.7818608E-02  0.1180000E+00
       11   -1    0    0    0    0  0.00000000000E+00  0.00000000000E+00  0.11999999989E+02  0.12000000000E+02  0.51109989000E-03 0. -1.
     -623   -1    0    0    0    0  0.00000000000E+00  0.00000000000E+00  0.42561509872E-11  0.25126700000E+02  0.25126700000E+02 0. -1.
      622    2    1    2    0    0 -0.15931186047E-01 -0.29719721450E-01  0.11145815818E+02  0.11146520732E+02  0.12073570715E+00 0.  0.
       11    1    1    2    0    0  0.13424533590E-02 -0.32714618160E-01  0.85276893487E+00  0.85339742554E+00  0.51109989000E-03 0. -1.
     -623    1    1    2    0    0  0.14588732688E-01  0.62434339610E-01  0.14152362896E-02  0.25126781843E+02  0.25126700000E+02 0. -1.
     -611    1    3    3    0    0 -0.69323881087E-02  0.35150345493E-01  0.14449470969E+01  0.14454257911E+01  0.10000000000E-01 0.  1.
      611    1    3    3    0    0 -0.89987979379E-02 -0.64870066943E-01  0.97008687211E+01  0.97010949407E+01  0.10000000000E-01 0. -1.
</event>
<event>
 7   0  0.6206631E-02  0.9118800E+02  0.7818608E-02  0.1180000E+00
       11   -1    0    0    0    0  0.00000000000E+00  0.00000000000E+00  0.11999999989E+02  0.12000000000E+02  0.51109989000E-03 0. -1.
     -623   -1    0    0    0    0  0.00000000000E+00  0.00000000000E+00  0.42561509872E-11  0.25126700000E+02  0.25126700000E+02 0. -1.
      622    2    1    2    0    0 -0.62398768651E-01  0.63916447301E-01  0.11306846374E+02  0.11308566198E+02  0.17582838802E+00 0.  0.
       11    1    1    2    0    0 -0.33052219302E-01 -0.36500556819E-01  0.68948094512E+00  0.69123727819E+00  0.51109989000E-03 0. -1.
     -623    1    1    2    0    0  0.95450987953E-01 -0.27415890482E-01  0.36726701460E-02  0.25126896523E+02  0.25126700000E+02 0. -1.
     -611    1    3    3    0    0 -0.66977506254E-01 -0.46547152687E-01  0.59691184468E+01  0.59696840499E+01  0.10000000000E-01 0.  1.
      611    1    3    3    0    0  0.45787376026E-02  0.11046359999E+00  0.53377279270E+01  0.53388821484E+01  0.10000000000E-01 0. -1.
</event>
<event>
 7   0  0.6206631E-02  0.9118800E+02  0.7818608E-02  0.1180000E+00
       11   -1    0    0    0    0  0.00000000000E+00  0.00000000000E+00  0.11999999989E+02  0.12000000000E+02  0.51109989000E-03 0. -1.
     -623   -1    0    0    0    0  0.00000000000E+00  0.00000000000E+00  0.42561509872E-11  0.25126700000E+02  0.25126700000E+02 0. -1.
      622    2    1    2    0    0  0.31089644232E-02  0.25505105429E-02  0.11983328084E+02  0.11983925627E+02  0.11960473406E+00 0.  0.
       11    1    1    2    0    0  0.23888457706E-02  0.17066201091E-02  0.15794735690E-01  0.16073395253E-01  0.51109989000E-03 0. -1.
     -623    1    1    2    0    0 -0.54978101938E-02 -0.42571306520E-02  0.87716903641E-03  0.25126700977E+02  0.25126700000E+02 0. -1.
     -611    1    3    3    0    0 -0.86870663122E-02  0.19628268709E-01  0.48776938789E+00  0.48834384384E+00  0.10000000000E-01 0.  1.
      611    1    3    3    0    0  0.11796030735E-01 -0.17077758166E-01  0.11495558696E+02  0.11495581783E+02  0.10000000000E-01 0. -1.
</event>
<event>
 7   0  0.6206631E-02  0.9118800E+02  0.7818608E-02  0.1180000E+00
       11   -1    0    0    0    0  0.00000000000E+00  0.00000000000E+00  0.11999999989E+02  0.12000000000E+02  0.51109989000E-03 0. -1.
     -623   -1    0    0    0    0  0.00000000000E+00  0.00000000000E+00  0.42561509872E-11  0.25126700000E+02  0.25126700000E+02 0. -1.
      622    2    1    2    0    0  0.15052007988E-01 -0.75563419728E-02  0.11575995372E+02  0.11576521351E+02  0.10905994205E+00 0.  0.
       11    1    1    2    0    0 -0.33594811038E-02  0.73751535574E-02  0.42339805749E+00  0.42347592058E+00  0.51109989000E-03 0. -1.
     -623    1    1    2    0    0 -0.11692526884E-01  0.18118841537E-03  0.60655946972E-03  0.25126702728E+02  0.25126700000E+02 0. -1.
     -611    1    3    3    0    0  0.28664672191E-01 -0.31832114316E-01  0.20143083018E+01  0.20147885451E+01  0.10000000000E-01 0.  1.
      611    1    3    3    0    0 -0.13612664203E-01  0.24275772343E-01  0.95616870704E+01  0.95617328058E+01  0.10000000000E-01 0. -1.
</event>
<event>
 7   0  0.6206631E-02  0.9118800E+02  0.7818608E-02  0.1180000E+00
       11   -1    0    0    0    0  0.00000000000E+00  0.00000000000E+00  0.11999999989E+02  0.12000000000E+02  0.51109989000E-03 0.  1.
     -623   -1    0    0    0    0  0.00000000000E+00  0.00000000000E+00  0.42561509872E-11  0.25126700000E+02  0.25126700000E+02 0. -1.
      622    2    1    2    0    0  0.13596166795E-01 -0.19623071984E-01  0.11571879921E+02  0.11572329614E+02  0.99186110803E-01 0.  0.
       11    1    1    2    0    0 -0.13814035168E-01  0.16786475486E-01  0.42711699732E+00  0.42767020466E+00  0.51109989000E-03 0.  1.
     -623    1    1    2    0    0  0.21786837341E-03  0.28365964981E-02  0.10030712379E-02  0.25126700181E+02  0.25126700000E+02 0. -1.
     -611    1    3    3    0    0  0.11465361372E-01 -0.18377440364E-01  0.11447229085E+02  0.11447253946E+02  0.10000000000E-01 0.  1.
      611    1    3    3    0    0  0.21308054225E-02 -0.12456316201E-02  0.12465083540E+00  0.12507566788E+00  0.10000000000E-01 0.  1.
</event>
<event>
 7   0  0.6206631E-02  0.9118800E+02  0.7818608E-02  0.1180000E+00
       11   -1    0    0    0    0  0.00000000000E+00  0.00000000000E+00  0.11999999989E+02  0.12000000000E+02  0.51109989000E-03 0.  1.
     -623   -1    0    0    0    0  0.00000000000E+00  0.00000000000E+00  0.42561509872E-11  0.25126700000E+02  0.25126700000E+02 0. -1.
      622    2    1    2    0    0  0.45239995167E-01  0.93579111676E-03  0.11723317078E+02  0.11723852806E+02  0.10253670262E+00 0.  0.
       11    1    1    2    0    0 -0.80157232172E-01  0.12545535146E-01  0.26392660930E+00  0.27611607820E+00  0.51109989000E-03 0.  1.
     -623    1    1    2    0    0  0.34917237005E-01 -0.13481326263E-01  0.12756302083E-01  0.25126731116E+02  0.25126700000E+02 0. -1.
     -611    1    3    3    0    0  0.92002616199E-02 -0.99955237427E-02  0.10268859722E+02  0.10268873577E+02  0.10000000000E-01 0.  1.
      611    1    3    3    0    0  0.36039733547E-01  0.10931314859E-01  0.14544573556E+01  0.14549792285E+01  0.10000000000E-01 0. -1.
</event>
<event>
 7   0  0.6206631E-02  0.9118800E+02  0.7818608E-02  0.1180000E+00
       11   -1    0    0    0    0  0.00000000000E+00  0.00000000000E+00  0.11999999989E+02  0.12000000000E+02  0.51109989000E-03 0.  1.
     -623   -1    0    0    0    0  0.00000000000E+00  0.00000000000E+00  0.42561509872E-11  0.25126700000E+02  0.25126700000E+02 0.  1.
      622    2    1    2    0    0  0.73620992277E-02 -0.34875810607E-01  0.11291558168E+02  0.11291900127E+02  0.80324943073E-01 0.  0.
       11    1    1    2    0    0 -0.28436749551E-01  0.45608121215E-01  0.70604567527E+00  0.70808862880E+00  0.51109989000E-03 0.  1.
     -623    1    1    2    0    0  0.21074650323E-01 -0.10732310607E-01  0.23961460629E-02  0.25126711244E+02  0.25126700000E+02 0.  1.
     -611    1    3    3    0    0  0.41195851552E-01 -0.12804715768E-01  0.46224402205E+01  0.46226523394E+01  0.10000000000E-01 0. -1.
      611    1    3    3    0    0 -0.33833752325E-01 -0.22071094840E-01  0.66691179472E+01  0.66692477874E+01  0.10000000000E-01 0.  1.
</event>
<event>
 7   0  0.6206631E-02  0.9118800E+02  0.7818608E-02  0.1180000E+00
       11   -1    0    0    0    0  0.00000000000E+00  0.00000000000E+00  0.11999999989E+02  0.12000000000E+02  0.51109989000E-03 0.  1.
     -623   -1    0    0    0    0  0.00000000000E+00  0.00000000000E+00  0.42561509872E-11  0.25126700000E+02  0.25126700000E+02 0.  1.
      622    2    1    2    0    0  0.10023952967E-01  0.12584441849E-01  0.11501129456E+02  0.11501710124E+02  0.11444730475E+00 0.  0.
       11    1    1    2    0    0  0.12182264028E-02 -0.97872160345E-02  0.49818931584E+00  0.49828719561E+00  0.51109989000E-03 0.  1.
     -623    1    1    2    0    0 -0.11242179370E-01 -0.27972258147E-02  0.68121770726E-03  0.25126702680E+02  0.25126700000E+02 0.  1.
     -611    1    3    3    0    0  0.96083359801E-02  0.62742335399E-01  0.67110181881E+01  0.67113258036E+01  0.10000000000E-01 0. -1.
      611    1    3    3    0    0  0.41561698721E-03 -0.50157893550E-01  0.47901112674E+01  0.47903843208E+01  0.10000000000E-01 0.  1.
</event>
<event>
 7   0  0.6206631E-02  0.9118800E+02  0.7818608E-02  0.1180000E+00
       11   -1    0    0    0    0  0.00000000000E+00  0.00000000000E+00  0.11999999989E+02  0.12000000000E+02  0.51109989000E-03 0. -1.
     -623   -1    0    0    0    0  0.00000000000E+00  0.00000000000E+00  0.42561509872E-11  0.25126700000E+02  0.25126700000E+02 0. -1.
      622    2    1    2    0    0  0.51633184098E-02  0.74779447831E-02  0.11924597554E+02  0.11925166540E+02  0.11613619991E+00 0.  0.
       11    1    1    2    0    0  0.26280639580E-02 -0.17002869948E-01  0.72823831083E-01  0.74830314068E-01  0.51109989000E-03 0. -1.
     -623    1    1    2    0    0 -0.77913823678E-02  0.95249251650E-02  0.25786043536E-02  0.25126703146E+02  0.25126700000E+02 0. -1.
     -611    1    3    3    0    0  0.26412325160E-02  0.52428558854E-01  0.31926954641E+01  0.31931426614E+01  0.10000000000E-01 0.  1.
      611    1    3    3    0    0  0.25220858938E-02 -0.44950614071E-01  0.87319020896E+01  0.87320238789E+01  0.10000000000E-01 0. -1.
</event>
<event>
 7   0  0.6206631E-02  0.9118800E+02  0.7818608E-02  0.1180000E+00
       11   -1    0    0    0    0  0.00000000000E+00  0.00000000000E+00  0.11999999989E+02  0.12000000000E+02  0.51109989000E-03 0. -1.
     -623   -1    0    0    0    0  0.00000000000E+00  0.00000000000E+00  0.42561509872E-11  0.25126700000E+02  0.25126700000E+02 0.  1.
      622    2    1    2    0    0 -0.25481622226E-02  0.13245938971E-01  0.11908823141E+02  0.11909278304E+02  0.10324327234E+00 0.  0.
       11    1    1    2    0    0  0.55439278568E-02 -0.11384816636E-01  0.89831866935E-01  0.90721412721E-01  0.51109989000E-03 0. -1.
     -623    1    1    2    0    0 -0.29957656342E-02 -0.18611223355E-02  0.13449815340E-02  0.25126700284E+02  0.25126700000E+02 0.  1.
     -611    1    3    3    0    0  0.35456663103E-01  0.33911493635E-01  0.37489995635E+01  0.37493339264E+01  0.10000000000E-01 0.  1.
      611    1    3    3    0    0 -0.38004825326E-01 -0.20665554663E-01  0.81598235772E+01  0.81599443774E+01  0.10000000000E-01 0. -1.
</event>
<event>
 7   0  0.6206631E-02  0.9118800E+02  0.7818608E-02  0.1180000E+00
       11   -1    0    0    0    0  0.00000000000E+00  0.00000000000E+00  0.11999999989E+02  0.12000000000E+02  0.51109989000E-03 0.  1.
     -623   -1    0    0    0    0  0.00000000000E+00  0.00000000000E+00  0.42561509872E-11  0.25126700000E+02  0.25126700000E+02 0.  1.
      622    2    1    2    0    0 -0.31917710592E-02  0.16823154694E-02  0.11878755195E+02  0.11878887610E+02  0.55971899426E-01 0.  0.
       11    1    1    2    0    0  0.24585535325E-02 -0.27794703547E-02  0.12105441491E+00  0.12111235500E+00  0.51109989000E-03 0.  1.
     -623    1    1    2    0    0  0.73321752665E-03  0.10971548853E-02  0.19037970067E-03  0.25126700035E+02  0.25126700000E+02 0.  1.
     -611    1    3    3    0    0 -0.22576593688E-01 -0.19409399488E-02  0.94317019077E+01  0.94317344293E+01  0.10000000000E-01 0.  1.
      611    1    3    3    0    0  0.19384822629E-01  0.36232554182E-02  0.24470532868E+01  0.24471531803E+01  0.10000000000E-01 0. -1.
</event>
<event>
 7   0  0.6206631E-02  0.9118800E+02  0.7818608E-02  0.1180000E+00
       11   -1    0    0    0    0  0.00000000000E+00  0.00000000000E+00  0.11999999989E+02  0.12000000000E+02  0.51109989000E-03 0.  1.
     -623   -1    0    0    0    0  0.00000000000E+00  0.00000000000E+00  0.42561509872E-11  0.25126700000E+02  0.25126700000E+02 0. -1.
      622    2    1    2    0    0 -0.42256387855E-01 -0.29188523253E-02  0.38402641887E+01  0.38414339348E+01  0.84802798607E-01 0.  0.
       11    1    1    2    0    0  0.44069802978E-01  0.43114848807E-02  0.81584457469E+01  0.81585659280E+01  0.51109989000E-03 0.  1.
     -623    1    1    2    0    0 -0.18134151227E-02 -0.13926325555E-02  0.12900535758E-02  0.25126700137E+02  0.25126700000E+02 0. -1.
     -611    1    3    3    0    0 -0.48866330430E-01  0.11216125733E-01  0.36285345729E+01  0.36288947170E+01  0.10000000000E-01 0.  1.
      611    1    3    3    0    0  0.66099425746E-02 -0.14134978058E-01  0.21172961574E+00  0.21253921785E+00  0.10000000000E-01 0. -1.
</event>
<event>
 7   0  0.6206631E-02  0.9118800E+02  0.7818608E-02  0.1180000E+00
       11   -1    0    0    0    0  0.00000000000E+00  0.00000000000E+00  0.11999999989E+02  0.12000000000E+02  0.51109989000E-03 0.  1.
     -623   -1    0    0    0    0  0.00000000000E+00  0.00000000000E+00  0.42561509872E-11  0.25126700000E+02  0.25126700000E+02 0.  1.
      622    2    1    2    0    0  0.63082965267E-02  0.10012765003E-02  0.11570574707E+02  0.11571279930E+02  0.12759063481E+00 0.  0.
       11    1    1    2    0    0 -0.62917477369E-02 -0.23902166343E-02  0.42866688155E+00  0.42872002028E+00  0.51109989000E-03 0.  1.
     -623    1    1    2    0    0 -0.16548789740E-04  0.13889401340E-02  0.75840064713E-03  0.25126700050E+02  0.25126700000E+02 0.  1.
     -611    1    3    3    0    0  0.42898551099E-01 -0.27786744771E-01  0.95582061003E+01  0.95583479872E+01  0.10000000000E-01 0.  1.
      611    1    3    3    0    0 -0.36590254573E-01  0.28788021272E-01  0.20123686067E+01  0.20129319427E+01  0.10000000000E-01 0. -1.
</event>
<event>
 7   0  0.6206631E-02  0.9118800E+02  0.7818608E-02  0.1180000E+00
       11   -1    0    0    0    0  0.00000000000E+00  0.00000000000E+00  0.11999999989E+02  0.12000000000E+02  0.51109989000E-03 0. -1.
     -623   -1    0    0    0    0  0.00000000000E+00  0.00000000000E+00  0.42561509872E-11  0.25126700000E+02  0.25126700000E+02 0. -1.
      622    2    1    2    0    0 -0.10249300792E-02 -0.26368757436E-02  0.11994462931E+02  0.11994768667E+02  0.85594270851E-01 0.  0.
       11    1    1    2    0    0 -0.14315535482E-02  0.99489360540E-03  0.49055643469E-02  0.52311512631E-02  0.51109989000E-03 0. -1.
     -623    1    1    2    0    0  0.24564836273E-02  0.16419821382E-02  0.63149416165E-03  0.25126700182E+02  0.25126700000E+02 0. -1.
     -611    1    3    3    0    0  0.17279868635E-01 -0.34193477346E-01  0.86722812566E+01  0.86723716468E+01  0.10000000000E-01 0. -1.
      611    1    3    3    0    0 -0.18304798715E-01  0.31556601603E-01  0.33221816741E+01  0.33223970203E+01  0.10000000000E-01 0.  1.
</event>
<event>
 7   0  0.6206631E-02  0.9118800E+02  0.7818608E-02  0.1180000E+00
       11   -1    0    0    0    0  0.00000000000E+00  0.00000000000E+00  0.11999999989E+02  0.12000000000E+02  0.51109989000E-03 0.  1.
     -623   -1    0    0    0    0  0.00000000000E+00  0.00000000000E+00  0.42561509872E-11  0.25126700000E+02  0.25126700000E+02 0.  1.
      622    2    1    2    0    0 -0.41456707563E-02  0.45388371552E-02  0.11985217790E+02  0.11985547939E+02  0.88747621865E-01 0.  0.
       11    1    1    2    0    0 -0.11689685992E-01  0.28573709687E-02  0.79740328290E-02  0.14445059715E-01  0.51109989000E-03 0.  1.
     -623    1    1    2    0    0  0.15835356749E-01 -0.73962081240E-02  0.68081659495E-02  0.25126707001E+02  0.25126700000E+02 0.  1.
     -611    1    3    3    0    0 -0.27703536033E-01  0.18170993625E-01  0.10444358959E+02  0.10444416295E+02  0.10000000000E-01 0.  1.
      611    1    3    3    0    0  0.23557865277E-01 -0.13632156470E-01  0.15408588311E+01  0.15411316446E+01  0.10000000000E-01 0. -1.
</event>
<event>
 7   0  0.6206631E-02  0.9118800E+02  0.7818608E-02  0.1180000E+00
       11   -1    0    0    0    0  0.00000000000E+00  0.00000000000E+00  0.11999999989E+02  0.12000000000E+02  0.51109989000E-03 0. -1.
     -623   -1    0    0    0    0  0.00000000000E+00  0.00000000000E+00  0.42561509872E-11  0.25126700000E+02  0.25126700000E+02 0. -1.
      622    2    1    2    0    0  0.50285595493E-01 -0.12895343011E-01  0.60986476071E+01  0.61016962350E+01  0.18574007953E+00 0.  0.
       11    1    1    2    0    0 -0.50942849404E-01  0.31689258951E-01  0.58979913525E+01  0.58982965030E+01  0.51109989000E-03 0. -1.
     -623    1    1    2    0    0  0.65725391094E-03 -0.18793915941E-01  0.33610295654E-02  0.25126707262E+02  0.25126700000E+02 0. -1.
     -611    1    3    3    0    0  0.59328285196E-01 -0.61367769184E-01  0.55692888713E+01  0.55699519191E+01  0.10000000000E-01 0.  1.
      611    1    3    3    0    0 -0.90426897033E-02  0.48472426174E-01  0.52935873577E+00  0.53174431588E+00  0.10000000000E-01 0. -1.
</event>
<event>
 7   0  0.6206631E-02  0.9118800E+02  0.7818608E-02  0.1180000E+00
       11   -1    0    0    0    0  0.00000000000E+00  0.00000000000E+00  0.11999999989E+02  0.12000000000E+02  0.51109989000E-03 0. -1.
     -623   -1    0    0    0    0  0.00000000000E+00  0.00000000000E+00  0.42561509872E-11  0.25126700000E+02  0.25126700000E+02 0. -1.
      622    2    1    2    0    0  0.20912798145E-01  0.64103430447E-02  0.10421790973E+02  0.10422169433E+02  0.86082273791E-01 0.  0.
       11    1    1    2    0    0 -0.19562259401E-01 -0.26865467015E-02  0.15777066065E+01  0.15778302497E+01  0.51109989000E-03 0. -1.
     -623    1    1    2    0    0 -0.13505387433E-02 -0.37237963432E-02  0.50240912760E-03  0.25126700317E+02  0.25126700000E+02 0. -1.
     -611    1    3    3    0    0  0.10591011409E-01 -0.90181553360E-02  0.41174355339E+00  0.41209980636E+00  0.10000000000E-01 0. -1.
      611    1    3    3    0    0  0.10321786735E-01  0.15428498381E-01  0.10010047420E+02  0.10010069627E+02  0.10000000000E-01 0. -1.
</event>
<event>
 7   0  0.6206631E-02  0.9118800E+02  0.7818608E-02  0.1180000E+00
       11   -1    0    0    0    0  0.00000000000E+00  0.00000000000E+00  0.11999999989E+02  0.12000000000E+02  0.51109989000E-03 0. -1.
     -623   -1    0    0    0    0  0.00000000000E+00  0.00000000000E+00  0.42561509872E-11  0.25126700000E+02  0.25126700000E+02 0.  1.
      622    2    1    2    0    0 -0.11202619978E-02 -0.38433514659E-02  0.11983935271E+02  0.11984555319E+02  0.12184251039E+00 0.  0.
       11    1    1    2    0    0 -0.77807119654E-02  0.14764489668E-02  0.13247661629E-01  0.15442834650E-01  0.51109989000E-03 0. -1.
     -623    1    1    2    0    0  0.89009739632E-02  0.23669024991E-02  0.28170564698E-02  0.25126701846E+02  0.25126700000E+02 0.  1.
     -611    1    3    3    0    0 -0.29837441945E-01  0.11324528759E-01  0.98509953338E+00  0.98566708810E+00  0.10000000000E-01 0.  1.
      611    1    3    3    0    0  0.28717179947E-01 -0.15167880225E-01  0.10998835738E+02  0.10998888231E+02  0.10000000000E-01 0. -1.
</event>
<event>
 7   0  0.6206631E-02  0.9118800E+02  0.7818608E-02  0.1180000E+00
       11   -1    0    0    0    0  0.00000000000E+00  0.00000000000E+00  0.11999999989E+02  0.12000000000E+02  0.51109989000E-03 0. -1.
     -623   -1    0    0    0    0  0.00000000000E+00  0.00000000000E+00  0.42561509872E-11  0.25126700000E+02  0.25126700000E+02 0.  1.
      622    2    1    2    0    0  0.11914274568E-01 -0.91506929581E-02  0.11471701520E+02  0.11471998132E+02  0.81115406758E-01 0.  0.
       11    1    1    2    0    0 -0.10805559630E-01  0.10833718782E-01  0.52777977450E+00  0.52800178141E+00  0.51109989000E-03 0. -1.
     -623    1    1    2    0    0 -0.11087149384E-02 -0.16830258241E-02  0.51869498531E-03  0.25126700086E+02  0.25126700000E+02 0.  1.
     -611    1    3    3    0    0 -0.24262477663E-01 -0.25955089851E-02  0.86405386335E+01  0.86405788742E+01  0.10000000000E-01 0. -1.
      611    1    3    3    0    0  0.36176752231E-01 -0.65551839731E-02  0.28311628862E+01  0.28314192582E+01  0.10000000000E-01 0. -1.
</event>
<event>
 6   0  0.6206631E-02  0.9118800E+02  0.7818608E-02  0.1180000E+00
       11   -1    0    0    0    0  0.00000000000E+00  0.00000000000E+00  0.11999999989E+02  0.12000000000E+02  0.51109989000E-03 0. -1.
     -623   -1    0    0    0    0  0.00000000000E+00  0.00000000000E+00  0.42561509872E-11  0.25126700000E+02  0.25126700000E+02 0. -1.
       11    1    1    2    0    0 -0.68517400277E-02 -0.17818482693E-01  0.67015805362E+00  0.67043010278E+00  0.51109989000E-03 0. -1.
     -623    1    1    2    0    0 -0.62945466928E-02  0.19651010002E-02  0.23444227745E-02  0.25126700975E+02  0.25126700000E+02 0. -1.
     -611    1    1    2    0    0  0.30158528634E-01  0.73303101265E-01  0.10280700648E+02  0.10281011074E+02  0.10000000000E-01 0. -1.
      611    1    1    2    0    0 -0.17012241914E-01 -0.57449719573E-01  0.10467968648E+01  0.10485578490E+01  0.10000000000E-01 0.  1.
</event>
<event>
 7   0  0.6206631E-02  0.9118800E+02  0.7818608E-02  0.1180000E+00
       11   -1    0    0    0    0  0.00000000000E+00  0.00000000000E+00  0.11999999989E+02  0.12000000000E+02  0.51109989000E-03 0. -1.
     -623   -1    0    0    0    0  0.00000000000E+00  0.00000000000E+00  0.42561509872E-11  0.25126700000E+02  0.25126700000E+02 0.  1.
      622    2    1    2    0    0  0.41925059879E-02 -0.70038489359E-02  0.11912448955E+02  0.11912586916E+02  0.56747583306E-01 0.  0.
       11    1    1    2    0    0 -0.22696413557E-02  0.71014103326E-02  0.87093002514E-01  0.87413005958E-01  0.51109989000E-03 0. -1.
     -623    1    1    2    0    0 -0.19228646322E-02 -0.97561396714E-04  0.45803122831E-03  0.25126700078E+02  0.25126700000E+02 0.  1.
     -611    1    3    3    0    0  0.19666417118E-01 -0.21883535547E-01  0.49396832513E+01  0.49397809952E+01  0.10000000000E-01 0.  1.
      611    1    3    3    0    0 -0.15473911130E-01  0.14879686611E-01  0.69727657039E+01  0.69728059208E+01  0.10000000000E-01 0. -1.
</event>
<event>
 7   0  0.6206631E-02  0.9118800E+02  0.7818608E-02  0.1180000E+00
       11   -1    0    0    0    0  0.00000000000E+00  0.00000000000E+00  0.11999999989E+02  0.12000000000E+02  0.51109989000E-03 0.  1.
     -623   -1    0    0    0    0  0.00000000000E+00  0.00000000000E+00  0.42561509872E-11  0.25126700000E+02  0.25126700000E+02 0. -1.
      622    2    1    2    0    0 -0.18329472141E-02 -0.23135826965E-02  0.11943569803E+02  0.11943717624E+02  0.59349200547E-01 0.  0.
       11    1    1    2    0    0  0.19490440840E-02  0.14922653519E-02  0.56226483062E-01  0.56282361796E-01  0.51109989000E-03 0.  1.
     -623    1    1    2    0    0 -0.11609686987E-03  0.82131734460E-03  0.20370325617E-03  0.25126700015E+02  0.25126700000E+02 0. -1.
     -611    1    3    3    0    0  0.60377630912E-03  0.25205779462E-01  0.76030113083E+01  0.76030596900E+01  0.10000000000E-01 0. -1.
      611    1    3    3    0    0 -0.24367235233E-02 -0.27519362159E-01  0.43405584944E+01  0.43406579336E+01  0.10000000000E-01 0.  1.
</event>
<event>
 7   0  0.6206631E-02  0.9118800E+02  0.7818608E-02  0.1180000E+00
       11   -1    0    0    0    0  0.00000000000E+00  0.00000000000E+00  0.11999999989E+02  0.12000000000E+02  0.51109989000E-03 0.  1.
     -623   -1    0    0    0    0  0.00000000000E+00  0.00000000000E+00  0.42561509872E-11  0.25126700000E+02  0.25126700000E+02 0.  1.
      622    2    1    2    0    0 -0.35285953376E-01  0.22787544029E-01  0.83965911698E+01  0.83973218563E+01  0.10250226570E+00 0.  0.
       11    1    1    2    0    0  0.29839819014E-01 -0.30855519261E-01  0.36024204838E+01  0.36026762388E+01  0.51109989000E-03 0.  1.
     -623    1    1    2    0    0  0.54461343620E-02  0.80679752320E-02  0.98833547228E-03  0.25126701905E+02  0.25126700000E+02 0.  1.
     -611    1    3    3    0    0  0.17244890734E-01  0.17682601120E-01  0.65188108604E+00  0.65242548308E+00  0.10000000000E-01 0. -1.
      611    1    3    3    0    0 -0.52530844110E-01  0.51049429090E-02  0.77447100838E+01  0.77448963732E+01  0.10000000000E-01 0.  1.
</event>
<event>
 7   0  0.6206631E-02  0.9118800E+02  0.7818608E-02  0.1180000E+00
       11   -1    0    0    0    0  0.00000000000E+00  0.00000000000E+00  0.11999999989E+02  0.12000000000E+02  0.51109989000E-03 0.  1.
     -623   -1    0    0    0    0  0.00000000000E+00  0.00000000000E+00  0.42561509872E-11  0.25126700000E+02  0.25126700000E+02 0.  1.
      622    2    1    2    0    0  0.26247648390E-02  0.15563559585E-02  0.11964106373E+02  0.11964308523E+02  0.69482423384E-01 0.  0.
       11    1    1    2    0    0 -0.47867233467E-03  0.57079540146E-02  0.35223973366E-01  0.35690326267E-01  0.51109989000E-03 0.  1.
     -623    1    1    2    0    0 -0.21460925043E-02 -0.72643099731E-02  0.66964224679E-03  0.25126701151E+02  0.25126700000E+02 0.  1.
     -611    1    3    3    0    0 -0.27194870570E-02 -0.25065183044E-01  0.23168768855E+01  0.23170356410E+01  0.10000000000E-01 0.  1.
      611    1    3    3    0    0  0.53442518960E-02  0.26621539003E-01  0.96472294880E+01  0.96472728821E+01  0.10000000000E-01 0.  1.
</event>
<event>
 7   0  0.6206631E-02  0.9118800E+02  0.7818608E-02  0.1180000E+00
       11   -1    0    0    0    0  0.00000000000E+00  0.00000000000E+00  0.11999999989E+02  0.12000000000E+02  0.51109989000E-03 0. -1.
     -623   -1    0    0    0    0  0.00000000000E+00  0.00000000000E+00  0.42561509872E-11  0.25126700000E+02  0.25126700000E+02 0.  1.
      622    2    1    2    0    0 -0.29764140640E-02 -0.20213643911E-01  0.11772566158E+02  0.11773167727E+02  0.11724727395E+00 0.  0.
       11    1    1    2    0    0  0.29913814924E-01  0.38729188475E-01  0.22146752883E+00  0.22681030380E+00  0.51109989000E-03 0. -1.
     -623    1    1    2    0    0 -0.26937400860E-01 -0.18515544564E-01  0.59663022383E-02  0.25126721970E+02  0.25126700000E+02 0.  1.
     -611    1    3    3    0    0 -0.46823757801E-01  0.26036142830E-01  0.53525398480E+01  0.53528173114E+01  0.10000000000E-01 0.  1.
      611    1    3    3    0    0  0.43847343737E-01 -0.46249786741E-01  0.64200263100E+01  0.64203504152E+01  0.10000000000E-01 0. -1.
</event>
<event>
 7   0  0.6206631E-02  0.9118800E+02  0.7818608E-02  0.1180000E+00
       11   -1    0    0    0    0  0.00000000000E+00  0.00000000000E+00  0.11999999989E+02  0.12000000000E+02  0.51109989000E-03 0.  1.
     -623   -1    0    0    0    0  0.00000000000E+00  0.00000000000E+00  0.42561509872E-11  0.25126700000E+02  0.25126700000E+02 0.  1.
      622    2    1    2    0    0 -0.19313929118E-02  0.16067058982E-01  0.11844572237E+02  0.11844878181E+02  0.83580852900E-01 0.  0.
       11    1    1    2    0    0 -0.28344642942E-02 -0.15794305507E-01  0.15428828380E+00  0.15512133965E+00  0.51109989000E-03 0.  1.
     -623    1    1    2    0    0  0.47658572060E-02 -0.27275347526E-03  0.11394680304E-02  0.25126700479E+02  0.25126700000E+02 0.  1.
     -611    1    3    3    0    0 -0.24484341392E-01  0.36127582989E-01  0.92925031225E+01  0.92926109876E+01  0.10000000000E-01 0.  1.
      611    1    3    3    0    0  0.22552948480E-01 -0.20060524007E-01  0.25520691148E+01  0.25522671935E+01  0.10000000000E-01 0. -1.
</event>
<event>
 7   0  0.6206631E-02  0.9118800E+02  0.7818608E-02  0.1180000E+00
       11   -1    0    0    0    0  0.00000000000E+00  0.00000000000E+00  0.11999999989E+02  0.12000000000E+02  0.51109989000E-03 0. -1.
     -623   -1    0    0    0    0  0.00000000000E+00  0.00000000000E+00  0.42561509872E-11  0.25126700000E+02  0.25126700000E+02 0. -1.
      622    2    1    2    0    0  0.12203106596E-02 -0.66408675726E-02  0.11933301259E+02  0.11933741764E+02  0.10231301013E+00 0.  0.
       11    1    1    2    0    0 -0.89225978658E-03  0.67519197080E-02  0.65905281110E-01  0.66258220989E-01  0.51109989000E-03 0. -1.
     -623    1    1    2    0    0 -0.32805087299E-03 -0.11105213535E-03  0.79344851688E-03  0.25126700015E+02  0.25126700000E+02 0. -1.
     -611    1    3    3    0    0  0.27786456757E-01  0.33081070632E-01  0.82193410076E+01  0.82194606297E+01  0.10000000000E-01 0. -1.
      611    1    3    3    0    0 -0.26566146097E-01 -0.39721938204E-01  0.37139602519E+01  0.37142811344E+01  0.10000000000E-01 0.  1.
</event>
<event>
 7   0  0.6206631E-02  0.9118800E+02  0.7818608E-02  0.1180000E+00
       11   -1    0    0    0    0  0.00000000000E+00  0.00000000000E+00  0.11999999989E+02  0.12000000000E+02  0.51109989000E-03 0.  1.
     -623   -1    0    0    0    0  0.00000000000E+00  0.00000000000E+00  0.42561509872E-11  0.25126700000E+02  0.25126700000E+02 0.  1.
      622    2    1    2    0    0  0.24389611601E-02  0.66902020125E-02  0.11954642828E+02  0.11954875153E+02  0.74189435574E-01 0.  0.
       11    1    1    2    0    0 -0.52116518759E-02 -0.13311222104E-01  0.42796451869E-01  0.45123690728E-01  0.51109989000E-03 0.  1.
     -623    1    1    2    0    0  0.27726907158E-02  0.66210200915E-02  0.25607088184E-02  0.25126701156E+02  0.25126700000E+02 0.  1.
     -611    1    3    3    0    0  0.73092549308E-02 -0.31825033173E-01  0.49771620018E+01  0.49772791613E+01  0.10000000000E-01 0. -1.
      611    1    3    3    0    0 -0.48702937707E-02  0.38515235185E-01  0.69774808267E+01  0.69775959922E+01  0.10000000000E-01 0.  1.
</event>
<event>
 7   0  0.6206631E-02  0.9118800E+02  0.7818608E-02  0.1180000E+00
       11   -1    0    0    0    0  0.00000000000E+00  0.00000000000E+00  0.11999999989E+02  0.12000000000E+02  0.51109989000E-03 0. -1.
     -623   -1    0    0    0    0  0.00000000000E+00  0.00000000000E+00  0.42561509872E-11  0.25126700000E+02  0.25126700000E+02 0. -1.
      622    2    1    2    0    0  0.25032644484E-01 -0.17727218662E-01  0.11699378868E+02  0.11700365413E+02  0.14880862538E+00 0.  0.
       11    1    1    2    0    0 -0.74384558079E-02  0.21984587807E-01  0.29872733681E+00  0.29962799553E+00  0.51109989000E-03 0. -1.
     -623    1    1    2    0    0 -0.17594188676E-01 -0.42573691449E-02  0.18937845117E-02  0.25126706592E+02  0.25126700000E+02 0. -1.
     -611    1    3    3    0    0  0.28267049074E-01 -0.55505697537E-01  0.10740251530E+02  0.10740436808E+02  0.10000000000E-01 0. -1.
      611    1    3    3    0    0 -0.32344045900E-02  0.37778478874E-01  0.95912733789E+00  0.95992860418E+00  0.10000000000E-01 0.  1.
</event>
<event>
 7   0  0.6206631E-02  0.9118800E+02  0.7818608E-02  0.1180000E+00
       11   -1    0    0    0    0  0.00000000000E+00  0.00000000000E+00  0.11999999989E+02  0.12000000000E+02  0.51109989000E-03 0. -1.
     -623   -1    0    0    0    0  0.00000000000E+00  0.00000000000E+00  0.42561509872E-11  0.25126700000E+02  0.25126700000E+02 0.  1.
      622    2    1    2    0    0  0.39011943895E-01 -0.49829485851E-01  0.11806440621E+02  0.11807154939E+02  0.11341386960E+00 0.  0.
       11    1    1    2    0    0 -0.20528936563E-01 -0.31447872119E-01  0.18901081593E+00  0.19270639756E+00  0.51109989000E-03 0. -1.
     -623    1    1    2    0    0 -0.18483007332E-01  0.81277357970E-01  0.45485519646E-02  0.25126838663E+02  0.25126700000E+02 0.  1.
     -611    1    3    3    0    0  0.64577107890E-01 -0.46566561107E-01  0.10894287869E+02  0.10894583370E+02  0.10000000000E-01 0. -1.
      611    1    3    3    0    0 -0.25565163996E-01 -0.32629247440E-02  0.91215275249E+00  0.91257156879E+00  0.10000000000E-01 0.  1.
</event>
<event>
 7   0  0.6206631E-02  0.9118800E+02  0.7818608E-02  0.1180000E+00
       11   -1    0    0    0    0  0.00000000000E+00  0.00000000000E+00  0.11999999989E+02  0.12000000000E+02  0.51109989000E-03 0. -1.
     -623   -1    0    0    0    0  0.00000000000E+00  0.00000000000E+00  0.42561509872E-11  0.25126700000E+02  0.25126700000E+02 0.  1.
      622    2    1    2    0    0  0.18099465196E-01 -0.30700084067E-01  0.49480618677E+01  0.49491655266E+01  0.98250077594E-01 0.  0.
       11    1    1    2    0    0 -0.28411378740E-01  0.11048285951E-01  0.70507587279E+01  0.70508246448E+01  0.51109989000E-03 0. -1.
     -623    1    1    2    0    0  0.10311913544E-01  0.19651798115E-01  0.11793935198E-02  0.25126709829E+02  0.25126700000E+02 0.  1.
     -611    1    3    3    0    0 -0.28474359937E-01  0.17415612127E-01  0.12575611704E+01  0.12580437950E+01  0.10000000000E-01 0.  1.
      611    1    3    3    0    0  0.46573825133E-01 -0.48115696193E-01  0.36905006972E+01  0.36911217316E+01  0.10000000000E-01 0. -1.
</event>
<event>
 7   0  0.6206631E-02  0.9118800E+02  0.7818608E-02  0.1180000E+00
       11   -1    0    0    0    0  0.00000000000E+00  0.00000000000E+00  0.11999999989E+02  0.12000000000E+02  0.51109989000E-03 0.  1.
     -623   -1    0    0    0    0  0.00000000000E+00  0.00000000000E+00  0.42561509872E-11  0.25126700000E+02  0.25126700000E+02 0. -1.
      622    2    1    2    0    0 -0.13327894284E-02 -0.41947330494E-02  0.11979360657E+02  0.11980590288E+02  0.17158821814E+00 0.  0.
       11    1    1    2    0    0 -0.52373152471E-03  0.11812818325E-02  0.19359623756E-01  0.19409430096E-01  0.51109989000E-03 0.  1.
     -623    1    1    2    0    0  0.18565209532E-02  0.30134512168E-02  0.12797079291E-02  0.25126700282E+02  0.25126700000E+02 0. -1.
     -611    1    3    3    0    0 -0.74764007759E-01  0.27119737220E-01  0.38668701408E+01  0.38677008445E+01  0.10000000000E-01 0.  1.
      611    1    3    3    0    0  0.73431218331E-01 -0.31314470269E-01  0.81124905166E+01  0.81128894435E+01  0.10000000000E-01 0. -1.
</event>
<event>
 7   0  0.6206631E-02  0.9118800E+02  0.7818608E-02  0.1180000E+00
       11   -1    0    0    0    0  0.00000000000E+00  0.00000000000E+00  0.11999999989E+02  0.12000000000E+02  0.51109989000E-03 0.  1.
     -623   -1    0    0    0    0  0.00000000000E+00  0.00000000000E+00  0.42561509872E-11  0.25126700000E+02  0.25126700000E+02 0. -1.
      622    2    1    2    0    0  0.50263633810E-02  0.11828814349E-02  0.11847944683E+02  0.11848298787E+02  0.91456503800E-01 0.  0.
       11    1    1    2    0    0 -0.35488911291E-02  0.11098363771E-02  0.15165462210E+00  0.15170106128E+00  0.51109989000E-03 0.  1.
     -623    1    1    2    0    0 -0.14774722518E-02 -0.22927178119E-02  0.40068441789E-03  0.25126700151E+02  0.25126700000E+02 0. -1.
     -611    1    3    3    0    0  0.11807803536E-01  0.27617299962E-01  0.10468851679E+02  0.10468899542E+02  0.10000000000E-01 0.  1.
      611    1    3    3    0    0 -0.67814401546E-02 -0.26434418527E-01  0.13790930035E+01  0.13793992456E+01  0.10000000000E-01 0. -1.
</event>
<event>
 7   0  0.6206631E-02  0.9118800E+02  0.7818608E-02  0.1180000E+00
       11   -1    0    0    0    0  0.00000000000E+00  0.00000000000E+00  0.11999999989E+02  0.12000000000E+02  0.51109989000E-03 0. -1.
     -623   -1    0    0    0    0  0.00000000000E+00  0.00000000000E+00  0.42561509872E-11  0.25126700000E+02  0.25126700000E+02 0.  1.
      622    2    1    2    0    0  0.32327380119E-02  0.63946848035E-02  0.11777748821E+02  0.11778191416E+02  0.10185483308E+00 0.  0.
       11    1    1    2    0    0 -0.28905590915E-02 -0.82384211774E-02  0.22163601986E+00  0.22180850624E+00  0.51109989000E-03 0. -1.
     -623    1    1    2    0    0 -0.34217892044E-03  0.18437363739E-02  0.61514834849E-03  0.25126700078E+02  0.25126700000E+02 0.  1.
     -611    1    3    3    0    0 -0.28001475878E-01  0.35107696922E-01  0.88349729047E+01  0.88350926910E+01  0.10000000000E-01 0.  1.
      611    1    3    3    0    0  0.31234213890E-01 -0.28713012119E-01  0.29427759163E+01  0.29430987252E+01  0.10000000000E-01 0. -1.
</event>
<event>
 7   0  0.6206631E-02  0.9118800E+02  0.7818608E-02  0.1180000E+00
       11   -1    0    0    0    0  0.00000000000E+00  0.00000000000E+00  0.11999999989E+02  0.12000000000E+02  0.51109989000E-03 0.  1.
     -623   -1    0    0    0    0  0.00000000000E+00  0.00000000000E+00  0.42561509872E-11  0.25126700000E+02  0.25126700000E+02 0.  1.
      622    2    1    2    0    0  0.11554613458E-01  0.92161745888E-02  0.11908861240E+02  0.11909032249E+02  0.62085565876E-01 0.  0.
       11    1    1    2    0    0 -0.16142562899E-01 -0.10174975741E-01  0.88941896963E-01  0.90967217869E-01  0.51109989000E-03 0.  1.
     -623    1    1    2    0    0  0.45879494408E-02  0.95880115217E-03  0.21968518113E-02  0.25126700533E+02  0.25126700000E+02 0.  1.
     -611    1    3    3    0    0  0.77066458666E-02  0.20823674605E-01  0.18696928604E+01  0.18698514406E+01  0.10000000000E-01 0.  1.
      611    1    3    3    0    0  0.38479675915E-02 -0.11607500016E-01  0.10039168380E+02  0.10039180808E+02  0.10000000000E-01 0.  1.
</event>
<event>
 6   0  0.6206631E-02  0.9118800E+02  0.7818608E-02  0.1180000E+00
       11   -1    0    0    0    0  0.00000000000E+00  0.00000000000E+00  0.11999999989E+02  0.12000000000E+02  0.51109989000E-03 0.  1.
     -623   -1    0    0    0    0  0.00000000000E+00  0.00000000000E+00  0.42561509872E-11  0.25126700000E+02  0.25126700000E+02 0.  1.
       11    1    1    2    0    0 -0.19708202252E+00 -0.15331751356E+00  0.43248765486E+01  0.43320786010E+01  0.51109989000E-03 0.  1.
     -623    1    1    2    0    0  0.88063617342E-01  0.53850973948E-01  0.12348298792E-01  0.25126915061E+02  0.25126700000E+02 0.  1.
     -611    1    1    2    0    0  0.11100446457E+00  0.81463756484E-01  0.19447582408E+01  0.19496520074E+01  0.10000000000E-01 0. -1.
      611    1    1    2    0    0 -0.19860593863E-02  0.18002783126E-01  0.57180169009E+01  0.57180543302E+01  0.10000000000E-01 0.  1.
</event>
<event>
 7   0  0.6206631E-02  0.9118800E+02  0.7818608E-02  0.1180000E+00
       11   -1    0    0    0    0  0.00000000000E+00  0.00000000000E+00  0.11999999989E+02  0.12000000000E+02  0.51109989000E-03 0. -1.
     -623   -1    0    0    0    0  0.00000000000E+00  0.00000000000E+00  0.42561509872E-11  0.25126700000E+02  0.25126700000E+02 0. -1.
      622    2    1    2    0    0 -0.55363537575E-01  0.32649758459E-01  0.11540021621E+02  0.11540568343E+02  0.92127868587E-01 0.  0.
       11    1    1    2    0    0  0.31242690853E-02 -0.34946244857E-01  0.45803506926E+00  0.45937717290E+00  0.51109989000E-03 0. -1.
     -623    1    1    2    0    0  0.52239268490E-01  0.22964863989E-02  0.19432986616E-02  0.25126754484E+02  0.25126700000E+02 0. -1.
     -611    1    3    3    0    0 -0.69245325534E-01  0.21065611908E-01  0.10829225501E+02  0.10829471992E+02  0.10000000000E-01 0. -1.
      611    1    3    3    0    0  0.13881787958E-01  0.11584146550E-01  0.71079612006E+00  0.71109635127E+00  0.10000000000E-01 0.  1.
</event>
<event>
 7   0  0.6206631E-02  0.9118800E+02  0.7818608E-02  0.1180000E+00
       11   -1    0    0    0    0  0.00000000000E+00  0.00000000000E+00  0.11999999989E+02  0.12000000000E+02  0.51109989000E-03 0. -1.
     -623   -1    0    0    0    0  0.00000000000E+00  0.00000000000E+00  0.42561509872E-11  0.25126700000E+02  0.25126700000E+02 0.  1.
      622    2    1    2    0    0 -0.23349764557E-01 -0.87510232480E-03  0.10286542214E+02  0.10286695188E+02  0.51001995729E-01 0.  0.
       11    1    1    2    0    0  0.38952357203E-01 -0.38719387350E-02  0.17128522053E+01  0.17132995116E+01  0.51109989000E-03 0. -1.
     -623    1    1    2    0    0 -0.15602592646E-01  0.47470410598E-02  0.60556991255E-03  0.25126705300E+02  0.25126700000E+02 0.  1.
     -611    1    3    3    0    0 -0.33875816223E-01  0.11221656665E-01  0.71492660359E+01  0.71493620939E+01  0.10000000000E-01 0.  1.
      611    1    3    3    0    0  0.10526051666E-01 -0.12096758990E-01  0.31372761780E+01  0.31373330946E+01  0.10000000000E-01 0. -1.
</event>
<event>
 7   0  0.6206631E-02  0.9118800E+02  0.7818608E-02  0.1180000E+00
       11   -1    0    0    0    0  0.00000000000E+00  0.00000000000E+00  0.11999999989E+02  0.12000000000E+02  0.51109989000E-03 0.  1.
     -623   -1    0    0    0    0  0.00000000000E+00  0.00000000000E+00  0.42561509872E-11  0.25126700000E+02  0.25126700000E+02 0. -1.
      622    2    1    2    0    0  0.34846831782E-03  0.32201274275E-01  0.11123028480E+02  0.11123628441E+02  0.11095081162E+00 0.  0.
       11    1    1    2    0    0  0.23733246563E-02 -0.30610447462E-01  0.87583321755E+00  0.87637133587E+00  0.51109989000E-03 0.  1.
     -623    1    1    2    0    0 -0.27217929742E-02 -0.15908268136E-02  0.11382919885E-02  0.25126700224E+02  0.25126700000E+02 0. -1.
     -611    1    3    3    0    0 -0.41850161390E-01  0.17637653804E-01  0.89386809367E+01  0.89388019002E+01  0.10000000000E-01 0.  1.
      611    1    3    3    0    0  0.42198629708E-01  0.14563620471E-01  0.21843475429E+01  0.21848265404E+01  0.10000000000E-01 0. -1.
</event>
<event>
 7   0  0.6206631E-02  0.9118800E+02  0.7818608E-02  0.1180000E+00
       11   -1    0    0    0    0  0.00000000000E+00  0.00000000000E+00  0.11999999989E+02  0.12000000000E+02  0.51109989000E-03 0. -1.
     -623   -1    0    0    0    0  0.00000000000E+00  0.00000000000E+00  0.42561509872E-11  0.25126700000E+02  0.25126700000E+02 0. -1.
      622    2    1    2    0    0 -0.43996800177E-01 -0.25277554243E-02  0.82909190457E+01  0.82914774893E+01  0.85546627125E-01 0.  0.
       11    1    1    2    0    0  0.12235568452E+00 -0.71784355988E-02  0.37063722561E+01  0.37083983072E+01  0.51109989000E-03 0. -1.
     -623    1    1    2    0    0 -0.78358884341E-01  0.97061910231E-02  0.27086873823E-02  0.25126824203E+02  0.25126700000E+02 0. -1.
     -611    1    3    3    0    0  0.14933072409E-01  0.18325739188E-01  0.40999770461E+01  0.41000573909E+01  0.10000000000E-01 0.  1.
      611    1    3    3    0    0 -0.58929872587E-01 -0.20853494612E-01  0.41909419996E+01  0.41914200985E+01  0.10000000000E-01 0. -1.
</event>
<event>
 7   0  0.6206631E-02  0.9118800E+02  0.7818608E-02  0.1180000E+00
       11   -1    0    0    0    0  0.00000000000E+00  0.00000000000E+00  0.11999999989E+02  0.12000000000E+02  0.51109989000E-03 0.  1.
     -623   -1    0    0    0    0  0.00000000000E+00  0.00000000000E+00  0.42561509872E-11  0.25126700000E+02  0.25126700000E+02 0. -1.
      622    2    1    2    0    0 -0.10828000568E-02  0.28458158775E-02  0.11929551752E+02  0.11929643120E+02  0.46590772870E-01 0.  0.
       11    1    1    2    0    0  0.90179974261E-03 -0.27664517078E-02  0.70294826738E-01  0.70356878747E-01  0.51109989000E-03 0.  1.
     -623    1    1    2    0    0  0.18100031422E-03 -0.79364169724E-04  0.15341055634E-03  0.25126700001E+02  0.25126700000E+02 0. -1.
     -611    1    3    3    0    0  0.14540458734E-01  0.15631739498E-01  0.70385404376E+01  0.70385799184E+01  0.10000000000E-01 0.  1.
      611    1    3    3    0    0 -0.15623258791E-01 -0.12785923621E-01  0.48910113142E+01  0.48910632015E+01  0.10000000000E-01 0.  1.
</event>
<event>
 7   0  0.6206631E-02  0.9118800E+02  0.7818608E-02  0.1180000E+00
       11   -1    0    0    0    0  0.00000000000E+00  0.00000000000E+00  0.11999999989E+02  0.12000000000E+02  0.51109989000E-03 0. -1.
     -623   -1    0    0    0    0  0.00000000000E+00  0.00000000000E+00  0.42561509872E-11  0.25126700000E+02  0.25126700000E+02 0. -1.
      622    2    1    2    0    0  0.53108158807E-01 -0.55354209054E-02  0.34672750426E+01  0.34688446095E+01  0.89641432527E-01 0.  0.
       11    1    1    2    0    0 -0.51849458723E-01  0.26553821844E-02  0.85309971428E+01  0.85311551345E+01  0.51109989000E-03 0. -1.
     -623    1    1    2    0    0 -0.12587000839E-02  0.28800387210E-02  0.17278037227E-02  0.25126700256E+02  0.25126700000E+02 0. -1.
     -611    1    3    3    0    0  0.67571228584E-01 -0.13347045242E-01  0.32427063441E+01  0.32434531674E+01  0.10000000000E-01 0. -1.
      611    1    3    3    0    0 -0.14463069778E-01  0.78116243365E-02  0.22456869849E+00  0.22539144217E+00  0.10000000000E-01 0.  1.
</event>
<event>
 7   0  0.6206631E-02  0.9118800E+02  0.7818608E-02  0.1180000E+00
       11   -1    0    0    0    0  0.00000000000E+00  0.00000000000E+00  0.11999999989E+02  0.12000000000E+02  0.51109989000E-03 0. -1.
     -623   -1    0    0    0    0  0.00000000000E+00  0.00000000000E+00  0.42561509872E-11  0.25126700000E+02  0.25126700000E+02 0.  1.
      622    2    1    2    0    0  0.81819836402E-02 -0.16901476502E-03  0.11305817087E+02  0.11306300206E+02  0.10419870151E+00 0.  0.
       11    1    1    2    0    0 -0.69811894389E-02 -0.35436451693E-03  0.69366434635E+00  0.69369975436E+00  0.51109989000E-03 0. -1.
     -623    1    1    2    0    0 -0.12007942012E-02  0.52337928194E-03  0.51855559554E-03  0.25126700039E+02  0.25126700000E+02 0.  1.
     -611    1    3    3    0    0  0.49298218143E-01 -0.23739335825E-01  0.55110747371E+01  0.55113554257E+01  0.10000000000E-01 0.  1.
      611    1    3    3    0    0 -0.41116234503E-01  0.23570321060E-01  0.57947423501E+01  0.57949447805E+01  0.10000000000E-01 0. -1.
</event>
<event>
 7   0  0.6206631E-02  0.9118800E+02  0.7818608E-02  0.1180000E+00
       11   -1    0    0    0    0  0.00000000000E+00  0.00000000000E+00  0.11999999989E+02  0.12000000000E+02  0.51109989000E-03 0. -1.
     -623   -1    0    0    0    0  0.00000000000E+00  0.00000000000E+00  0.42561509872E-11  0.25126700000E+02  0.25126700000E+02 0. -1.
      622    2    1    2    0    0 -0.35604560532E-01  0.93594195576E-03  0.63925658442E+01  0.63937262773E+01  0.11648637680E+00 0.  0.
       11    1    1    2    0    0  0.37895251150E-01 -0.18036868137E-02  0.56061451801E+01  0.56062735703E+01  0.51109989000E-03 0. -1.
     -623    1    1    2    0    0 -0.22906906178E-02  0.86774485792E-03  0.12889648777E-02  0.25126700152E+02  0.25126700000E+02 0. -1.
     -611    1    3    3    0    0 -0.52390427228E-01 -0.47729522791E-02  0.12796911047E+01  0.12808110171E+01  0.10000000000E-01 0. -1.
      611    1    3    3    0    0  0.16785866696E-01  0.57088942349E-02  0.51128747395E+01  0.51129152602E+01  0.10000000000E-01 0.  1.
</event>
<event>
 7   0  0.6206631E-02  0.9118800E+02  0.7818608E-02  0.1180000E+00
       11   -1    0    0    0    0  0.00000000000E+00  0.00000000000E+00  0.11999999989E+02  0.12000000000E+02  0.51109989000E-03 0. -1.
     -623   -1    0    0    0    0  0.00000000000E+00  0.00000000000E+00  0.42561509872E-11  0.25126700000E+02  0.25126700000E+02 0.  1.
      622    2    1    2    0    0 -0.65498255354E-02 -0.75868920797E-03  0.11970347725E+02  0.11970676560E+02  0.88482545235E-01 0.  0.
       11    1    1    2    0    0 -0.22082638076E-02  0.52369967616E-02  0.28760850474E-01  0.29321499062E-01  0.51109989000E-03 0. -1.
     -623    1    1    2    0    0  0.87580893430E-02 -0.44783075536E-02  0.89141352809E-03  0.25126701941E+02  0.25126700000E+02 0.  1.
     -611    1    3    3    0    0 -0.45443835193E-01 -0.70734550275E-03  0.76759468799E+01  0.76760879454E+01  0.10000000000E-01 0. -1.
      611    1    3    3    0    0  0.38894009658E-01 -0.51343705223E-04  0.42944008452E+01  0.42945886143E+01  0.10000000000E-01 0.  1.
</event>
<event>
 7   0  0.6206631E-02  0.9118800E+02  0.7818608E-02  0.1180000E+00
       11   -1    0    0    0    0  0.00000000000E+00  0.00000000000E+00  0.11999999989E+02  0.12000000000E+02  0.51109989000E-03 0. -1.
     -623   -1    0    0    0    0  0.00000000000E+00  0.00000000000E+00  0.42561509872E-11  0.25126700000E+02  0.25126700000E+02 0.  1.
      622    2    1    2    0    0  0.25909571377E-01 -0.22863502043E-02  0.11666805292E+02  0.11667190224E+02  0.91134265903E-01 0.  0.
       11    1    1    2    0    0 -0.31096034064E-01 -0.88760480390E-02  0.33123146091E+00  0.33280668485E+00  0.51109989000E-03 0. -1.
     -623    1    1    2    0    0  0.51864626868E-02  0.11162398243E-01  0.19632358586E-02  0.25126703091E+02  0.25126700000E+02 0.  1.
     -611    1    3    3    0    0 -0.11218662017E-01  0.32971313529E-01  0.69911246382E+01  0.69912185399E+01  0.10000000000E-01 0. -1.
      611    1    3    3    0    0  0.37128233394E-01 -0.35257663733E-01  0.46756806541E+01  0.46759716838E+01  0.10000000000E-01 0.  1.
</event>
<event>
 7   0  0.6206631E-02  0.9118800E+02  0.7818608E-02  0.1180000E+00
       11   -1    0    0    0    0  0.00000000000E+00  0.00000000000E+00  0.11999999989E+02  0.12000000000E+02  0.51109989000E-03 0.  1.
     -623   -1    0    0    0    0  0.00000000000E+00  0.00000000000E+00  0.42561509872E-11  0.25126700000E+02  0.25126700000E+02 0. -1.
      622    2    1    2    0    0  0.10534787250E-04  0.12670130370E+00  0.86048022965E+01  0.86067381059E+01  0.13139650563E+00 0.  0.
       11    1    1    2    0    0 -0.22938678022E-01 -0.11728542090E+00  0.33911441701E+01  0.33932493419E+01  0.51109989000E-03 0.  1.
     -623    1    1    2    0    0  0.22928143235E-01 -0.94158828035E-02  0.40535225556E-02  0.25126712552E+02  0.25126700000E+02 0. -1.
     -611    1    3    3    0    0  0.59818326287E-01  0.54601531178E-01  0.28623092636E+01  0.28634723466E+01  0.10000000000E-01 0.  1.
      611    1    3    3    0    0 -0.59807791500E-01  0.72099772526E-01  0.57424930329E+01  0.57432657593E+01  0.10000000000E-01 0. -1.
</event>
<event>
 7   0  0.6206631E-02  0.9118800E+02  0.7818608E-02  0.1180000E+00
       11   -1    0    0    0    0  0.00000000000E+00  0.00000000000E+00  0.11999999989E+02  0.12000000000E+02  0.51109989000E-03 0.  1.
     -623   -1    0    0    0    0  0.00000000000E+00  0.00000000000E+00  0.42561509872E-11  0.25126700000E+02  0.25126700000E+02 0.  1.
      622    2    1    2    0    0 -0.89858456095E-02 -0.12808164065E-01  0.11942090586E+02  0.11942791058E+02  0.12839740829E+00 0.  0.
       11    1    1    2    0    0  0.64060629166E-02  0.11465646242E-01  0.55678295569E-01  0.57208675098E-01  0.51109989000E-03 0.  1.
     -623    1    1    2    0    0  0.25797826929E-02  0.13425178231E-02  0.22311079252E-02  0.25126700267E+02  0.25126700000E+02 0.  1.
     -611    1    3    3    0    0  0.10751145767E-01  0.42003611522E-01  0.18786135709E+01  0.18791404523E+01  0.10000000000E-01 0. -1.
      611    1    3    3    0    0 -0.19736991377E-01 -0.54811775587E-01  0.10063477015E+02  0.10063650605E+02  0.10000000000E-01 0.  1.
</event>
<event>
 7   0  0.6206631E-02  0.9118800E+02  0.7818608E-02  0.1180000E+00
       11   -1    0    0    0    0  0.00000000000E+00  0.00000000000E+00  0.11999999989E+02  0.12000000000E+02  0.51109989000E-03 0.  1.
     -623   -1    0    0    0    0  0.00000000000E+00  0.00000000000E+00  0.42561509872E-11  0.25126700000E+02  0.25126700000E+02 0. -1.
      622    2    1    2    0    0 -0.22795902466E-01 -0.24968312188E-01  0.11752522822E+02  0.11753115712E+02  0.11310695230E+00 0.  0.
       11    1    1    2    0    0  0.24348434411E-01  0.67500058819E-02  0.24558066208E+00  0.24687756409E+00  0.51109989000E-03 0.  1.
     -623    1    1    2    0    0 -0.15525319454E-02  0.18218306306E-01  0.18965050834E-02  0.25126706724E+02  0.25126700000E+02 0. -1.
     -611    1    3    3    0    0  0.32352043857E-01  0.19021632898E-01  0.23315234051E+01  0.23318468787E+01  0.10000000000E-01 0. -1.
      611    1    3    3    0    0 -0.55147946323E-01 -0.43989945085E-01  0.94209994169E+01  0.94212688330E+01  0.10000000000E-01 0.  1.
</event>
<event>
 7   0  0.6206631E-02  0.9118800E+02  0.7818608E-02  0.1180000E+00
       11   -1    0    0    0    0  0.00000000000E+00  0.00000000000E+00  0.11999999989E+02  0.12000000000E+02  0.51109989000E-03 0.  1.
     -623   -1    0    0    0    0  0.00000000000E+00  0.00000000000E+00  0.42561509872E-11  0.25126700000E+02  0.25126700000E+02 0.  1.
      622    2    1    2    0    0  0.38870617949E-01  0.41334794377E-01  0.11309207957E+02  0.11309516118E+02  0.61243104158E-01 0.  0.
       11    1    1    2    0    0 -0.31592315902E-01 -0.61073122535E-01  0.68704234302E+00  0.69047479537E+00  0.51109989000E-03 0.  1.
     -623    1    1    2    0    0 -0.72783020475E-02  0.19738328158E-01  0.37496891003E-02  0.25126709087E+02  0.25126700000E+02 0.  1.
     -611    1    3    3    0    0  0.22746352705E-01  0.40241173507E-01  0.10409598541E+02  0.10409705978E+02  0.10000000000E-01 0.  1.
      611    1    3    3    0    0  0.16124265244E-01  0.10936208700E-02  0.89960941563E+00  0.89981014033E+00  0.10000000000E-01 0. -1.
</event>
<event>
 7   0  0.6206631E-02  0.9118800E+02  0.7818608E-02  0.1180000E+00
       11   -1    0    0    0    0  0.00000000000E+00  0.00000000000E+00  0.11999999989E+02  0.12000000000E+02  0.51109989000E-03 0.  1.
     -623   -1    0    0    0    0  0.00000000000E+00  0.00000000000E+00  0.42561509872E-11  0.25126700000E+02  0.25126700000E+02 0.  1.
      622    2    1    2    0    0 -0.30936799639E-01 -0.27921157415E-01  0.11199314804E+02  0.11199824280E+02  0.98362256668E-01 0.  0.
       11    1    1    2    0    0 -0.19853994170E-02 -0.71750683323E-02  0.80009483665E+00  0.80012963467E+00  0.51109989000E-03 0.  1.
     -623    1    1    2    0    0  0.32922199056E-01  0.35096225748E-01  0.59034821910E-03  0.25126746086E+02  0.25126700000E+02 0.  1.
     -611    1    3    3    0    0 -0.38874159751E-01  0.19217438746E-01  0.26797948464E+01  0.26801643474E+01  0.10000000000E-01 0. -1.
      611    1    3    3    0    0  0.79373601117E-02 -0.47138596161E-01  0.85195199578E+01  0.85196599322E+01  0.10000000000E-01 0.  1.
</event>
<event>
 7   0  0.6206631E-02  0.9118800E+02  0.7818608E-02  0.1180000E+00
       11   -1    0    0    0    0  0.00000000000E+00  0.00000000000E+00  0.11999999989E+02  0.12000000000E+02  0.51109989000E-03 0. -1.
     -623   -1    0    0    0    0  0.00000000000E+00  0.00000000000E+00  0.42561509872E-11  0.25126700000E+02  0.25126700000E+02 0. -1.
      622    2    1    2    0    0  0.31193255534E-01  0.65976352843E-01  0.21727427299E+01  0.21769687209E+01  0.11426260590E+00 0.  0.
       11    1    1    2    0    0 -0.34159251835E-01 -0.64187058707E-01  0.98227615172E+01  0.98230306382E+01  0.51109989000E-03 0. -1.
     -623    1    1    2    0    0  0.29659963007E-02 -0.17892941368E-02  0.44957420253E-02  0.25126700641E+02  0.25126700000E+02 0. -1.
     -611    1    3    3    0    0  0.32498028599E-01  0.66087178682E-01  0.21569521864E+01  0.21582322330E+01  0.10000000000E-01 0.  1.
      611    1    3    3    0    0 -0.13047730646E-02 -0.11082583855E-03  0.15790543430E-01  0.18736487849E-01  0.10000000000E-01 0.  1.
</event>
<event>
 7   0  0.6206631E-02  0.9118800E+02  0.7818608E-02  0.1180000E+00
       11   -1    0    0    0    0  0.00000000000E+00  0.00000000000E+00  0.11999999989E+02  0.12000000000E+02  0.51109989000E-03 0. -1.
     -623   -1    0    0    0    0  0.00000000000E+00  0.00000000000E+00  0.42561509872E-11  0.25126700000E+02  0.25126700000E+02 0.  1.
      622    2    1    2    0    0  0.51856942885E-01  0.53477229192E-01  0.72288113673E+01  0.72302597432E+01  0.12406939386E+00 0.  0.
       11    1    1    2    0    0 -0.40444555795E-01 -0.52509134621E-01  0.47692770196E+01  0.47697375737E+01  0.51109989000E-03 0. -1.
     -623    1    1    2    0    0 -0.11412387090E-01 -0.96809457145E-03  0.19116022929E-02  0.25126702683E+02  0.25126700000E+02 0.  1.
     -611    1    3    3    0    0  0.16046913282E-02 -0.29134565188E-01  0.36440507603E+01  0.36441812992E+01  0.10000000000E-01 0. -1.
      611    1    3    3    0    0  0.50252251557E-01  0.82611794381E-01  0.35847606070E+01  0.35860784440E+01  0.10000000000E-01 0.  1.
</event>
<event>
 7   0  0.6206631E-02  0.9118800E+02  0.7818608E-02  0.1180000E+00
       11   -1    0    0    0    0  0.00000000000E+00  0.00000000000E+00  0.11999999989E+02  0.12000000000E+02  0.51109989000E-03 0. -1.
     -623   -1    0    0    0    0  0.00000000000E+00  0.00000000000E+00  0.42561509872E-11  0.25126700000E+02  0.25126700000E+02 0. -1.
      622    2    1    2    0    0 -0.12435304898E-02 -0.16505734312E-01  0.11912828187E+02  0.11913273338E+02  0.10164755678E+00 0.  0.
       11    1    1    2    0    0  0.33944512426E-02  0.16671520601E-01  0.85039749408E-01  0.86726478661E-01  0.51109989000E-03 0. -1.
     -623    1    1    2    0    0 -0.21509207528E-02 -0.16578628988E-03  0.21320523745E-02  0.25126700183E+02  0.25126700000E+02 0. -1.
     -611    1    3    3    0    0 -0.15164139712E-02 -0.42984192533E-01  0.10783752346E+02  0.10783842757E+02  0.10000000000E-01 0. -1.
      611    1    3    3    0    0  0.27288348136E-03  0.26478458221E-01  0.11290758413E+01  0.11294305816E+01  0.10000000000E-01 0.  1.
</event>
<event>
 7   0  0.6206631E-02  0.9118800E+02  0.7818608E-02  0.1180000E+00
       11   -1    0    0    0    0  0.00000000000E+00  0.00000000000E+00  0.11999999989E+02  0.12000000000E+02  0.51109989000E-03 0.  1.
     -623   -1    0    0    0    0  0.00000000000E+00  0.00000000000E+00  0.42561509872E-11  0.25126700000E+02  0.25126700000E+02 0. -1.
      622    2    1    2    0    0  0.39918354663E-02 -0.28873733300E-02  0.11142860428E+02  0.11143168205E+02  0.82673150984E-01 0.  0.
       11    1    1    2    0    0 -0.22962594843E-02 -0.10655705575E-02  0.85682753281E+00  0.85683142475E+00  0.51109989000E-03 0.  1.
     -623    1    1    2    0    0 -0.16955759820E-02  0.39529438875E-02  0.31202790907E-03  0.25126700370E+02  0.25126700000E+02 0. -1.
     -611    1    3    3    0    0 -0.18496477424E-01 -0.30622330659E-01  0.80467618459E+01  0.80468475847E+01  0.10000000000E-01 0.  1.
      611    1    3    3    0    0  0.22488312891E-01  0.27734957329E-01  0.30960985824E+01  0.30963206204E+01  0.10000000000E-01 0. -1.
</event>
<event>
 7   0  0.6206631E-02  0.9118800E+02  0.7818608E-02  0.1180000E+00
       11   -1    0    0    0    0  0.00000000000E+00  0.00000000000E+00  0.11999999989E+02  0.12000000000E+02  0.51109989000E-03 0.  1.
     -623   -1    0    0    0    0  0.00000000000E+00  0.00000000000E+00  0.42561509872E-11  0.25126700000E+02  0.25126700000E+02 0.  1.
      622    2    1    2    0    0 -0.30591523261E-02 -0.27089106967E-02  0.11796673532E+02  0.11796987926E+02  0.86029158895E-01 0.  0.
       11    1    1    2    0    0  0.35191097817E-02  0.27938779458E-02  0.20296169120E+00  0.20301206665E+00  0.51109989000E-03 0.  1.
     -623    1    1    2    0    0 -0.45995745549E-03 -0.84967249059E-04  0.36476587604E-03  0.25126700007E+02  0.25126700000E+02 0.  1.
     -611    1    3    3    0    0 -0.91823795051E-02  0.14677412057E-01  0.67826247622E+00  0.67855709352E+00  0.10000000000E-01 0. -1.
      611    1    3    3    0    0  0.61232271790E-02 -0.17386322753E-01  0.11118411056E+02  0.11118430833E+02  0.10000000000E-01 0.  1.
</event>
<event>
 7   0  0.6206631E-02  0.9118800E+02  0.7818608E-02  0.1180000E+00
       11   -1    0    0    0    0  0.00000000000E+00  0.00000000000E+00  0.11999999989E+02  0.12000000000E+02  0.51109989000E-03 0.  1.
     -623   -1    0    0    0    0  0.00000000000E+00  0.00000000000E+00  0.42561509872E-11  0.25126700000E+02  0.25126700000E+02 0.  1.
      622    2    1    2    0    0  0.13372565101E-02  0.65951779595E-02  0.11701152875E+02  0.11701700162E+02  0.11297256490E+00 0.  0.
       11    1    1    2    0    0 -0.42859103153E-03 -0.80248242097E-02  0.29819106527E+00  0.29829977225E+00  0.51109989000E-03 0.  1.
     -623    1    1    2    0    0 -0.90866547855E-03  0.14296462502E-02  0.65604909949E-03  0.25126700066E+02  0.25126700000E+02 0.  1.
     -611    1    3    3    0    0 -0.49375827970E-01  0.27450010464E-01  0.57393479856E+01  0.57396347249E+01  0.10000000000E-01 0. -1.
      611    1    3    3    0    0  0.50713084480E-01 -0.20854832505E-01  0.59618048891E+01  0.59620654371E+01  0.10000000000E-01 0.  1.
</event>
<event>
 7   0  0.6206631E-02  0.9118800E+02  0.7818608E-02  0.1180000E+00
       11   -1    0    0    0    0  0.00000000000E+00  0.00000000000E+00  0.11999999989E+02  0.12000000000E+02  0.51109989000E-03 0. -1.
     -623   -1    0    0    0    0  0.00000000000E+00  0.00000000000E+00  0.42561509872E-11  0.25126700000E+02  0.25126700000E+02 0. -1.
      622    2    1    2    0    0  0.15976408409E-01 -0.31560642214E-02  0.11792666542E+02  0.11793136284E+02  0.10399061280E+00 0.  0.
       11    1    1    2    0    0 -0.17638374499E-01  0.56452899565E-02  0.20603219776E+00  0.20686350401E+00  0.51109989000E-03 0. -1.
     -623    1    1    2    0    0  0.16619660892E-02 -0.24892257352E-02  0.13012498238E-02  0.25126700212E+02  0.25126700000E+02 0. -1.
     -611    1    3    3    0    0 -0.17400216088E-01  0.41675972684E-01  0.65184851865E+01  0.65186493064E+01  0.10000000000E-01 0.  1.
      611    1    3    3    0    0  0.33376624497E-01 -0.44832036906E-01  0.52741813551E+01  0.52744869776E+01  0.10000000000E-01 0. -1.
</event>
<event>
 7   0  0.6206631E-02  0.9118800E+02  0.7818608E-02  0.1180000E+00
       11   -1    0    0    0    0  0.00000000000E+00  0.00000000000E+00  0.11999999989E+02  0.12000000000E+02  0.51109989000E-03 0.  1.
     -623   -1    0    0    0    0  0.00000000000E+00  0.00000000000E+00  0.42561509872E-11  0.25126700000E+02  0.25126700000E+02 0. -1.
      622    2    1    2    0    0  0.96353607967E-02 -0.19305218766E-01  0.97305485086E+01  0.97307699362E+01  0.61997911866E-01 0.  0.
       11    1    1    2    0    0 -0.80827233522E-02  0.15876859096E-01  0.22691597849E+01  0.22692297802E+01  0.51109989000E-03 0.  1.
     -623    1    1    2    0    0 -0.15526374445E-02  0.34283596697E-02  0.29169563367E-03  0.25126700284E+02  0.25126700000E+02 0. -1.
     -611    1    3    3    0    0  0.24839365051E-01 -0.15934254988E-01  0.24529588731E+01  0.24531567679E+01  0.10000000000E-01 0.  1.
      611    1    3    3    0    0 -0.15204004255E-01 -0.33709637777E-02  0.72775896355E+01  0.72776131683E+01  0.10000000000E-01 0. -1.
</event>
<event>
 7   0  0.6206631E-02  0.9118800E+02  0.7818608E-02  0.1180000E+00
       11   -1    0    0    0    0  0.00000000000E+00  0.00000000000E+00  0.11999999989E+02  0.12000000000E+02  0.51109989000E-03 0.  1.
     -623   -1    0    0    0    0  0.00000000000E+00  0.00000000000E+00  0.42561509872E-11  0.25126700000E+02  0.25126700000E+02 0. -1.
      622    2    1    2    0    0 -0.80559915756E-03  0.10235195162E-02  0.11861000160E+02  0.11861411869E+02  0.98818115790E-01 0.  0.
       11    1    1    2    0    0  0.13493329295E-02 -0.65332247496E-03  0.13857906778E+00  0.13858811919E+00  0.51109989000E-03 0.  1.
     -623    1    1    2    0    0 -0.54373377193E-03 -0.37019704126E-03  0.42076107144E-03  0.25126700012E+02  0.25126700000E+02 0. -1.
     -611    1    3    3    0    0 -0.41141259123E-02  0.17358427077E-02  0.11724145448E+02  0.11724150563E+02  0.10000000000E-01 0.  1.
      611    1    3    3    0    0  0.33085267547E-02 -0.71232319147E-03  0.13685471223E+00  0.13726130560E+00  0.10000000000E-01 0.  1.
</event>
<event>
 7   0  0.6206631E-02  0.9118800E+02  0.7818608E-02  0.1180000E+00
       11   -1    0    0    0    0  0.00000000000E+00  0.00000000000E+00  0.11999999989E+02  0.12000000000E+02  0.51109989000E-03 0.  1.
     -623   -1    0    0    0    0  0.00000000000E+00  0.00000000000E+00  0.42561509872E-11  0.25126700000E+02  0.25126700000E+02 0. -1.
      622    2    1    2    0    0 -0.90548019746E-02  0.15449527562E-01  0.11617771583E+02  0.11618379906E+02  0.11753472314E+00 0.  0.
       11    1    1    2    0    0 -0.76969220005E-03  0.65644678603E-02  0.38155093661E+00  0.38160852076E+00  0.51109989000E-03 0.  1.
     -623    1    1    2    0    0  0.98244941746E-02 -0.22013995422E-01  0.67746965895E-03  0.25126711573E+02  0.25126700000E+02 0. -1.
     -611    1    3    3    0    0  0.39150078011E-01  0.21904903442E-01  0.22130032151E+01  0.22134804683E+01  0.10000000000E-01 0. -1.
      611    1    3    3    0    0 -0.48204879985E-01 -0.64553758799E-02  0.94047683678E+01  0.94048994377E+01  0.10000000000E-01 0.  1.
</event>
<event>
 7   0  0.6206631E-02  0.9118800E+02  0.7818608E-02  0.1180000E+00
       11   -1    0    0    0    0  0.00000000000E+00  0.00000000000E+00  0.11999999989E+02  0.12000000000E+02  0.51109989000E-03 0.  1.
     -623   -1    0    0    0    0  0.00000000000E+00  0.00000000000E+00  0.42561509872E-11  0.25126700000E+02  0.25126700000E+02 0. -1.
      622    2    1    2    0    0 -0.31735755236E-01 -0.63258158439E-02  0.11255732288E+02  0.11256214947E+02  0.99087960964E-01 0.  0.
       11    1    1    2    0    0  0.31004989384E-01  0.48080698791E-02  0.74312273105E+00  0.74378496996E+00  0.51109989000E-03 0.  1.
     -623    1    1    2    0    0  0.73076585151E-03  0.15177459649E-02  0.11449697612E-02  0.25126700083E+02  0.25126700000E+02 0. -1.
     -611    1    3    3    0    0 -0.23033299715E-01  0.44249253887E-01  0.47458530422E+01  0.47461257492E+01  0.10000000000E-01 0.  1.
      611    1    3    3    0    0 -0.87024555203E-02 -0.50575069731E-01  0.65098792461E+01  0.65100891982E+01  0.10000000000E-01 0.  1.
</event>
<event>
 7   0  0.6206631E-02  0.9118800E+02  0.7818608E-02  0.1180000E+00
       11   -1    0    0    0    0  0.00000000000E+00  0.00000000000E+00  0.11999999989E+02  0.12000000000E+02  0.51109989000E-03 0. -1.
     -623   -1    0    0    0    0  0.00000000000E+00  0.00000000000E+00  0.42561509872E-11  0.25126700000E+02  0.25126700000E+02 0.  1.
      622    2    1    2    0    0  0.27499870098E-02  0.90671432864E-02  0.11144610099E+02  0.11145230297E+02  0.11719360990E+00 0.  0.
       11    1    1    2    0    0 -0.37605535793E-02 -0.94211451139E-02  0.85470932432E+00  0.85476967076E+00  0.51109989000E-03 0. -1.
     -623    1    1    2    0    0  0.10105665695E-02  0.35400182739E-03  0.68056573373E-03  0.25126700032E+02  0.25126700000E+02 0.  1.
     -611    1    3    3    0    0 -0.45278971488E-01 -0.29680235519E-01  0.52723143349E+01  0.52726017816E+01  0.10000000000E-01 0. -1.
      611    1    3    3    0    0  0.48028958498E-01  0.38747378806E-01  0.58722957641E+01  0.58726285156E+01  0.10000000000E-01 0.  1.
</event>
<event>
 7   0  0.6206631E-02  0.9118800E+02  0.7818608E-02  0.1180000E+00
       11   -1    0    0    0    0  0.00000000000E+00  0.00000000000E+00  0.11999999989E+02  0.12000000000E+02  0.51109989000E-03 0. -1.
     -623   -1    0    0    0    0  0.00000000000E+00  0.00000000000E+00  0.42561509872E-11  0.25126700000E+02  0.25126700000E+02 0.  1.
      622    2    1    2    0    0  0.93969829437E-03  0.12769271967E-02  0.11990328169E+02  0.11990738808E+02  0.99222224802E-01 0.  0.
       11    1    1    2    0    0  0.58575664631E-03 -0.86377756003E-03  0.91879393161E-02  0.92611378644E-02  0.51109989000E-03 0. -1.
     -623    1    1    2    0    0 -0.15254549407E-02 -0.41314963665E-03  0.48388111754E-03  0.25126700054E+02  0.25126700000E+02 0.  1.
     -611    1    3    3    0    0 -0.36144096026E-01  0.30006653206E-01  0.44791771774E+01  0.44794346720E+01  0.10000000000E-01 0.  1.
      611    1    3    3    0    0  0.37083794321E-01 -0.28729726009E-01  0.75111509913E+01  0.75113041357E+01  0.10000000000E-01 0. -1.
</event>
<event>
 7   0  0.6206631E-02  0.9118800E+02  0.7818608E-02  0.1180000E+00
       11   -1    0    0    0    0  0.00000000000E+00  0.00000000000E+00  0.11999999989E+02  0.12000000000E+02  0.51109989000E-03 0. -1.
     -623   -1    0    0    0    0  0.00000000000E+00  0.00000000000E+00  0.42561509872E-11  0.25126700000E+02  0.25126700000E+02 0.  1.
      622    2    1    2    0    0 -0.24774223316E-04  0.68979485153E-03  0.11994779377E+02  0.11995248572E+02  0.10609212080E+00 0.  0.
       11    1    1    2    0    0 -0.14067181456E-03  0.13056596382E-02  0.45375612058E-02  0.47513388074E-02  0.51109989000E-03 0. -1.
     -623    1    1    2    0    0  0.16544603788E-03 -0.19954544897E-02  0.68305134270E-03  0.25126700089E+02  0.25126700000E+02 0.  1.
     -611    1    3    3    0    0  0.38830472713E-01  0.34934524172E-01  0.63556786389E+01  0.63559011311E+01  0.10000000000E-01 0. -1.
      611    1    3    3    0    0 -0.38855246937E-01 -0.34244729320E-01  0.56391007377E+01  0.56393474411E+01  0.10000000000E-01 0.  1.
</event>
<event>
 7   0  0.6206631E-02  0.9118800E+02  0.7818608E-02  0.1180000E+00
       11   -1    0    0    0    0  0.00000000000E+00  0.00000000000E+00  0.11999999989E+02  0.12000000000E+02  0.51109989000E-03 0.  1.
     -623   -1    0    0    0    0  0.00000000000E+00  0.00000000000E+00  0.42561509872E-11  0.25126700000E+02  0.25126700000E+02 0. -1.
      622    2    1    2    0    0  0.67939184359E-02  0.50965775329E-02  0.11764462981E+02  0.11765445209E+02  0.15178804317E+00 0.  0.
       11    1    1    2    0    0  0.46789367467E-02 -0.56449782383E-02  0.23443695905E+00  0.23455214180E+00  0.51109989000E-03 0.  1.
     -623    1    1    2    0    0 -0.11472855183E-01  0.54840070542E-03  0.11000495144E-02  0.25126702649E+02  0.25126700000E+02 0. -1.
     -611    1    3    3    0    0 -0.14383628544E-01  0.11942203011E-01  0.23451757366E+00  0.23547398442E+00  0.10000000000E-01 0. -1.
      611    1    3    3    0    0  0.21177546980E-01 -0.68456254780E-02  0.11529945407E+02  0.11529971224E+02  0.10000000000E-01 0.  1.
</event>
<event>
 7   0  0.6206631E-02  0.9118800E+02  0.7818608E-02  0.1180000E+00
       11   -1    0    0    0    0  0.00000000000E+00  0.00000000000E+00  0.11999999989E+02  0.12000000000E+02  0.51109989000E-03 0. -1.
     -623   -1    0    0    0    0  0.00000000000E+00  0.00000000000E+00  0.42561509872E-11  0.25126700000E+02  0.25126700000E+02 0. -1.
      622    2    1    2    0    0 -0.18220041868E-02  0.23717454219E-02  0.11980111092E+02  0.11980776622E+02  0.12624479143E+00 0.  0.
       11    1    1    2    0    0  0.15433716626E-02 -0.35720854127E-02  0.18818427313E-01  0.19223324893E-01  0.51109989000E-03 0. -1.
     -623    1    1    2    0    0  0.27863252420E-03  0.12003399908E-02  0.10704698289E-02  0.25126700053E+02  0.25126700000E+02 0. -1.
     -611    1    3    3    0    0 -0.63017602941E-02  0.83423776061E-02  0.11861880816E+02  0.11861889639E+02  0.10000000000E-01 0. -1.
      611    1    3    3    0    0  0.44797561073E-02 -0.59706321842E-02  0.11823027563E+00  0.11888698305E+00  0.10000000000E-01 0.  1.
</event>
<event>
 7   0  0.6206631E-02  0.9118800E+02  0.7818608E-02  0.1180000E+00
       11   -1    0    0    0    0  0.00000000000E+00  0.00000000000E+00  0.11999999989E+02  0.12000000000E+02  0.51109989000E-03 0. -1.
     -623   -1    0    0    0    0  0.00000000000E+00  0.00000000000E+00  0.42561509872E-11  0.25126700000E+02  0.25126700000E+02 0. -1.
      622    2    1    2    0    0  0.57362018039E-02 -0.89518474789E-02  0.11904399104E+02  0.11904901606E+02  0.10886311156E+00 0.  0.
       11    1    1    2    0    0  0.29667609738E-03 -0.31404372356E-02  0.95041047126E-01  0.95094753928E-01  0.51109989000E-03 0. -1.
     -623    1    1    2    0    0 -0.60328779012E-02  0.12092284714E-01  0.55983792884E-03  0.25126703640E+02  0.25126700000E+02 0. -1.
     -611    1    3    3    0    0  0.42426364960E-01  0.27877959716E-01  0.76158232968E+01  0.76159990589E+01  0.10000000000E-01 0. -1.
      611    1    3    3    0    0 -0.36690163156E-01 -0.36829807195E-01  0.42885758073E+01  0.42889025470E+01  0.10000000000E-01 0.  1.
</event>
<event>
 7   0  0.6206631E-02  0.9118800E+02  0.7818608E-02  0.1180000E+00
       11   -1    0    0    0    0  0.00000000000E+00  0.00000000000E+00  0.11999999989E+02  0.12000000000E+02  0.51109989000E-03 0.  1.
     -623   -1    0    0    0    0  0.00000000000E+00  0.00000000000E+00  0.42561509872E-11  0.25126700000E+02  0.25126700000E+02 0. -1.
      622    2    1    2    0    0  0.74984559695E-02 -0.10204320851E-01  0.11967041041E+02  0.11967537412E+02  0.10825934919E+00 0.  0.
       11    1    1    2    0    0  0.12724561718E-01 -0.84762674995E-02  0.28614567090E-01  0.32447130143E-01  0.51109989000E-03 0.  1.
     -623    1    1    2    0    0 -0.20223017687E-01  0.18680588351E-01  0.43443814591E-02  0.25126715458E+02  0.25126700000E+02 0. -1.
     -611    1    3    3    0    0 -0.35568394569E-01 -0.23220888706E-01  0.92691659658E+01  0.92692686886E+01  0.10000000000E-01 0.  1.
      611    1    3    3    0    0  0.43066850538E-01  0.13016567855E-01  0.26978750748E+01  0.26982687234E+01  0.10000000000E-01 0. -1.
</event>
<event>
 7   0  0.6206631E-02  0.9118800E+02  0.7818608E-02  0.1180000E+00
       11   -1    0    0    0    0  0.00000000000E+00  0.00000000000E+00  0.11999999989E+02  0.12000000000E+02  0.51109989000E-03 0.  1.
     -623   -1    0    0    0    0  0.00000000000E+00  0.00000000000E+00  0.42561509872E-11  0.25126700000E+02  0.25126700000E+02 0. -1.
      622    2    1    2    0    0  0.34650177428E-02 -0.17422763925E-01  0.10942366367E+02  0.10942719875E+02  0.86145153076E-01 0.  0.
       11    1    1    2    0    0 -0.28317122072E-02  0.16222351064E-01  0.10571517065E+01  0.10572800836E+01  0.51109989000E-03 0.  1.
     -623    1    1    2    0    0 -0.63330553554E-03  0.12004128609E-02  0.48191513298E-03  0.25126700041E+02  0.25126700000E+02 0. -1.
     -611    1    3    3    0    0 -0.22381285808E-01  0.26366387078E-01  0.41914997969E+01  0.41916544055E+01  0.10000000000E-01 0.  1.
      611    1    3    3    0    0  0.25846303551E-01 -0.43789151003E-01  0.67508665706E+01  0.67510654696E+01  0.10000000000E-01 0.  1.
</event>
<event>
 7   0  0.6206631E-02  0.9118800E+02  0.7818608E-02  0.1180000E+00
       11   -1    0    0    0    0  0.00000000000E+00  0.00000000000E+00  0.11999999989E+02  0.12000000000E+02  0.51109989000E-03 0. -1.
     -623   -1    0    0    0    0  0.00000000000E+00  0.00000000000E+00  0.42561509872E-11  0.25126700000E+02  0.25126700000E+02 0. -1.
      622    2    1    2    0    0  0.21288479954E-01  0.98182419899E-01  0.11877943611E+02  0.11879050537E+02  0.12729584781E+00 0.  0.
       11    1    1    2    0    0  0.48655120230E-01 -0.13724706430E-01  0.10960954370E+00  0.12070709003E+00  0.51109989000E-03 0. -1.
     -623    1    1    2    0    0 -0.69943600185E-01 -0.84457713469E-01  0.12446834039E-01  0.25126942373E+02  0.25126700000E+02 0. -1.
     -611    1    3    3    0    0 -0.37202749770E-01 -0.69064884405E-02  0.38648431768E+01  0.38650413356E+01  0.10000000000E-01 0. -1.
      611    1    3    3    0    0  0.58491229724E-01  0.10508890834E+00  0.80131004346E+01  0.80140092012E+01  0.10000000000E-01 0.  1.
</event>
<event>
 7   0  0.6206631E-02  0.9118800E+02  0.7818608E-02  0.1180000E+00
       11   -1    0    0    0    0  0.00000000000E+00  0.00000000000E+00  0.11999999989E+02  0.12000000000E+02  0.51109989000E-03 0. -1.
     -623   -1    0    0    0    0  0.00000000000E+00  0.00000000000E+00  0.42561509872E-11  0.25126700000E+02  0.25126700000E+02 0. -1.
      622    2    1    2    0    0  0.89777295430E-02  0.20258191224E-02  0.11756198955E+02  0.11756548545E+02  0.90194902356E-01 0.  0.
       11    1    1    2    0    0 -0.94218559339E-02 -0.49205859132E-02  0.24321858421E+00  0.24345127739E+00  0.51109989000E-03 0. -1.
     -623    1    1    2    0    0  0.44412639092E-03  0.28947667907E-02  0.58244983487E-03  0.25126700177E+02  0.25126700000E+02 0. -1.
     -611    1    3    3    0    0  0.11526645365E-02  0.31048734659E-02  0.11520860620E+02  0.11520865436E+02  0.10000000000E-01 0. -1.
      611    1    3    3    0    0  0.78250650065E-02 -0.10790543435E-02  0.23533833488E+00  0.23568310899E+00  0.10000000000E-01 0.  1.
</event>
<event>
 7   0  0.6206631E-02  0.9118800E+02  0.7818608E-02  0.1180000E+00
       11   -1    0    0    0    0  0.00000000000E+00  0.00000000000E+00  0.11999999989E+02  0.12000000000E+02  0.51109989000E-03 0. -1.
     -623   -1    0    0    0    0  0.00000000000E+00  0.00000000000E+00  0.42561509872E-11  0.25126700000E+02  0.25126700000E+02 0.  1.
      622    2    1    2    0    0  0.87586643623E-02 -0.19389239920E-01  0.11258809377E+02  0.11259208202E+02  0.92347711721E-01 0.  0.
       11    1    1    2    0    0 -0.80679095941E-02  0.20431398539E-01  0.74046582064E+00  0.74079175614E+00  0.51109989000E-03 0. -1.
     -623    1    1    2    0    0 -0.69075476817E-03 -0.10421586196E-02  0.72479155410E-03  0.25126700042E+02  0.25126700000E+02 0.  1.
     -611    1    3    3    0    0  0.28733254577E-01 -0.15793584582E-01  0.15775230377E+01  0.15778954248E+01  0.10000000000E-01 0.  1.
      611    1    3    3    0    0 -0.19974590215E-01 -0.35956553377E-02  0.96812863393E+01  0.96813127776E+01  0.10000000000E-01 0. -1.
</event>
<event>
 7   0  0.6206631E-02  0.9118800E+02  0.7818608E-02  0.1180000E+00
       11   -1    0    0    0    0  0.00000000000E+00  0.00000000000E+00  0.11999999989E+02  0.12000000000E+02  0.51109989000E-03 0.  1.
     -623   -1    0    0    0    0  0.00000000000E+00  0.00000000000E+00  0.42561509872E-11  0.25126700000E+02  0.25126700000E+02 0.  1.
      622    2    1    2    0    0 -0.14645784678E-01  0.18579973510E-01  0.93177736028E+01  0.93183863221E+01  0.10420663238E+00 0.  0.
       11    1    1    2    0    0  0.68284251989E-02  0.54347876468E-02  0.26815867276E+01  0.26816009777E+01  0.51109989000E-03 0.  1.
     -623    1    1    2    0    0  0.78173594791E-02 -0.24014761157E-01  0.63965874846E-03  0.25126712700E+02  0.25126700000E+02 0.  1.
     -611    1    3    3    0    0  0.17019492454E-01 -0.18930789675E-01  0.80352930638E+00  0.80399464185E+00  0.10000000000E-01 0. -1.
      611    1    3    3    0    0 -0.31665277132E-01  0.37510763185E-01  0.85142442964E+01  0.85143916803E+01  0.10000000000E-01 0.  1.
</event>
<event>
 7   0  0.6206631E-02  0.9118800E+02  0.7818608E-02  0.1180000E+00
       11   -1    0    0    0    0  0.00000000000E+00  0.00000000000E+00  0.11999999989E+02  0.12000000000E+02  0.51109989000E-03 0.  1.
     -623   -1    0    0    0    0  0.00000000000E+00  0.00000000000E+00  0.42561509872E-11  0.25126700000E+02  0.25126700000E+02 0. -1.
      622    2    1    2    0    0 -0.62487437957E-02  0.58947301296E-02  0.80218492717E+01  0.80227386149E+01  0.11914424633E+00 0.  0.
       11    1    1    2    0    0  0.62969465443E-02 -0.11018970749E-01  0.39772405644E+01  0.39772608460E+01  0.51109989000E-03 0.  1.
     -623    1    1    2    0    0 -0.48202748554E-04  0.51242406194E-02  0.91015307545E-03  0.25126700539E+02  0.25126700000E+02 0. -1.
     -611    1    3    3    0    0 -0.38371676917E-01  0.12442452435E-01  0.10726334170E+01  0.10734382364E+01  0.10000000000E-01 0. -1.
      611    1    3    3    0    0  0.32122933121E-01 -0.65477223050E-02  0.69492158547E+01  0.69493003785E+01  0.10000000000E-01 0.  1.
</event>
<event>
 7   0  0.6206631E-02  0.9118800E+02  0.7818608E-02  0.1180000E+00
       11   -1    0    0    0    0  0.00000000000E+00  0.00000000000E+00  0.11999999989E+02  0.12000000000E+02  0.51109989000E-03 0. -1.
     -623   -1    0    0    0    0  0.00000000000E+00  0.00000000000E+00  0.42561509872E-11  0.25126700000E+02  0.25126700000E+02 0. -1.
      622    2    1    2    0    0  0.52368045038E-02 -0.55019702345E-01  0.11780127580E+02  0.11780690653E+02  0.10105377046E+00 0.  0.
       11    1    1    2    0    0  0.86437179808E-02  0.64653051546E-01  0.20937560594E+00  0.21930147405E+00  0.51109989000E-03 0. -1.
     -623    1    1    2    0    0 -0.13880522485E-01 -0.96333492004E-02  0.10496803208E-01  0.25126707873E+02  0.25126700000E+02 0. -1.
     -611    1    3    3    0    0  0.39153724165E-01 -0.94880943010E-02  0.22122612808E+01  0.22126506756E+01  0.10000000000E-01 0.  1.
      611    1    3    3    0    0 -0.33916919661E-01 -0.45531608044E-01  0.95678662992E+01  0.95680399771E+01  0.10000000000E-01 0. -1.
</event>
<event>
 7   0  0.6206631E-02  0.9118800E+02  0.7818608E-02  0.1180000E+00
       11   -1    0    0    0    0  0.00000000000E+00  0.00000000000E+00  0.11999999989E+02  0.12000000000E+02  0.51109989000E-03 0.  1.
     -623   -1    0    0    0    0  0.00000000000E+00  0.00000000000E+00  0.42561509872E-11  0.25126700000E+02  0.25126700000E+02 0.  1.
      622    2    1    2    0    0  0.22147780155E-04  0.19018696372E-01  0.92500030442E+01  0.92504790924E+01  0.91898919361E-01 0.  0.
       11    1    1    2    0    0 -0.70744277455E-02 -0.59484654591E-02  0.27495009303E+01  0.27495165136E+01  0.51109989000E-03 0.  1.
     -623    1    1    2    0    0  0.70522799653E-02 -0.13070230913E-01  0.49601469034E-03  0.25126704394E+02  0.25126700000E+02 0.  1.
     -611    1    3    3    0    0  0.21766404065E-01  0.13376593107E-01  0.85504501034E+01  0.85504941190E+01  0.10000000000E-01 0. -1.
      611    1    3    3    0    0 -0.21744256285E-01  0.56421032648E-02  0.69955294079E+00  0.69998497339E+00  0.10000000000E-01 0.  1.
</event>
<event>
 7   0  0.6206631E-02  0.9118800E+02  0.7818608E-02  0.1180000E+00
       11   -1    0    0    0    0  0.00000000000E+00  0.00000000000E+00  0.11999999989E+02  0.12000000000E+02  0.51109989000E-03 0. -1.
     -623   -1    0    0    0    0  0.00000000000E+00  0.00000000000E+00  0.42561509872E-11  0.25126700000E+02  0.25126700000E+02 0.  1.
      622    2    1    2    0    0  0.13240511068E-02  0.21847406166E-02  0.11800098137E+02  0.11800594560E+02  0.10820996154E+00 0.  0.
       11    1    1    2    0    0 -0.10793487797E-02 -0.30709782185E-02  0.19937819220E+00  0.19940541781E+00  0.51109989000E-03 0. -1.
     -623    1    1    2    0    0 -0.24470232716E-03  0.88623760184E-03  0.52365980143E-03  0.25126700022E+02  0.25126700000E+02 0.  1.
     -611    1    3    3    0    0 -0.17003892550E-01 -0.20003078230E-01  0.86906377196E+00  0.86951773715E+00  0.10000000000E-01 0.  1.
      611    1    3    3    0    0  0.18327943656E-01  0.22187818846E-01  0.10931034365E+02  0.10931076823E+02  0.10000000000E-01 0. -1.
</event>
<event>
 7   0  0.6206631E-02  0.9118800E+02  0.7818608E-02  0.1180000E+00
       11   -1    0    0    0    0  0.00000000000E+00  0.00000000000E+00  0.11999999989E+02  0.12000000000E+02  0.51109989000E-03 0.  1.
     -623   -1    0    0    0    0  0.00000000000E+00  0.00000000000E+00  0.42561509872E-11  0.25126700000E+02  0.25126700000E+02 0.  1.
      622    2    1    2    0    0 -0.75914428631E-02  0.24414128631E-01  0.11065494905E+02  0.11066116676E+02  0.11448627452E+00 0.  0.
       11    1    1    2    0    0  0.41315070315E-01 -0.14523595728E-01  0.93283113328E+00  0.93385869076E+00  0.51109989000E-03 0.  1.
     -623    1    1    2    0    0 -0.33723627452E-01 -0.98905329034E-02  0.16739505619E-02  0.25126724633E+02  0.25126700000E+02 0.  1.
     -611    1    3    3    0    0 -0.29625385728E-01  0.34884831881E-01  0.18788620922E+01  0.18794460292E+01  0.10000000000E-01 0. -1.
      611    1    3    3    0    0  0.22033942864E-01 -0.10470703250E-01  0.91866328130E+01  0.91866706467E+01  0.10000000000E-01 0.  1.
</event>
<event>
 7   0  0.6206631E-02  0.9118800E+02  0.7818608E-02  0.1180000E+00
       11   -1    0    0    0    0  0.00000000000E+00  0.00000000000E+00  0.11999999989E+02  0.12000000000E+02  0.51109989000E-03 0.  1.
     -623   -1    0    0    0    0  0.00000000000E+00  0.00000000000E+00  0.42561509872E-11  0.25126700000E+02  0.25126700000E+02 0.  1.
      622    2    1    2    0    0  0.22134037404E-01  0.68952876486E-02  0.11881600415E+02  0.11882319707E+02  0.12866911415E+00 0.  0.
       11    1    1    2    0    0 -0.44646363825E-02 -0.15611052221E-01  0.11654577704E+00  0.11767250018E+00  0.51109989000E-03 0.  1.
     -623    1    1    2    0    0 -0.17669401022E-01  0.87157645727E-02  0.18537971063E-02  0.25126707793E+02  0.25126700000E+02 0.  1.
     -611    1    3    3    0    0 -0.30227652472E-01 -0.20262882082E-02  0.86714595153E+00  0.86773263052E+00  0.10000000000E-01 0. -1.
      611    1    3    3    0    0  0.52361689876E-01  0.89215758568E-02  0.11014454463E+02  0.11014587077E+02  0.10000000000E-01 0.  1.
</event>
<event>
 7   0  0.6206631E-02  0.9118800E+02  0.7818608E-02  0.1180000E+00
       11   -1    0    0    0    0  0.00000000000E+00  0.00000000000E+00  0.11999999989E+02  0.12000000000E+02  0.51109989000E-03 0.  1.
     -623   -1    0    0    0    0  0.00000000000E+00  0.00000000000E+00  0.42561509872E-11  0.25126700000E+02  0.25126700000E+02 0. -1.
      622    2    1    2    0    0  0.13660759530E-01 -0.19957855520E-01  0.11710453124E+02  0.11711029724E+02  0.11366576768E+00 0.  0.
       11    1    1    2    0    0 -0.74536388377E-02  0.38953677932E-01  0.28622699656E+00  0.28896210917E+00  0.51109989000E-03 0.  1.
     -623    1    1    2    0    0 -0.62071206925E-02 -0.18995822412E-01  0.33198686855E-02  0.25126708166E+02  0.25126700000E+02 0. -1.
     -611    1    3    3    0    0  0.51508393562E-01 -0.52894597923E-02  0.29132833780E+01  0.29137606514E+01  0.10000000000E-01 0.  1.
      611    1    3    3    0    0 -0.37847634031E-01 -0.14668395728E-01  0.87971697459E+01  0.87972690730E+01  0.10000000000E-01 0.  1.
</event>
<event>
 7   0  0.6206631E-02  0.9118800E+02  0.7818608E-02  0.1180000E+00
       11   -1    0    0    0    0  0.00000000000E+00  0.00000000000E+00  0.11999999989E+02  0.12000000000E+02  0.51109989000E-03 0. -1.
     -623   -1    0    0    0    0  0.00000000000E+00  0.00000000000E+00  0.42561509872E-11  0.25126700000E+02  0.25126700000E+02 0. -1.
      622    2    1    2    0    0  0.44141444553E-01 -0.20118449313E-01  0.11561183929E+02  0.11561571254E+02  0.81257623886E-01 0.  0.
       11    1    1    2    0    0 -0.30513690816E-01  0.36783762941E-01  0.43580629797E+00  0.43841934391E+00  0.51109989000E-03 0. -1.
     -623    1    1    2    0    0 -0.13627753736E-01 -0.16665313628E-01  0.30097625243E-02  0.25126709402E+02  0.25126700000E+02 0. -1.
     -611    1    3    3    0    0  0.27865337495E-01  0.20826430269E-01  0.23712172424E+01  0.23714935015E+01  0.10000000000E-01 0.  1.
      611    1    3    3    0    0  0.16276107058E-01 -0.40944879582E-01  0.91899666862E+01  0.91900777521E+01  0.10000000000E-01 0. -1.
</event>
<event>
 7   0  0.6206631E-02  0.9118800E+02  0.7818608E-02  0.1180000E+00
       11   -1    0    0    0    0  0.00000000000E+00  0.00000000000E+00  0.11999999989E+02  0.12000000000E+02  0.51109989000E-03 0.  1.
     -623   -1    0    0    0    0  0.00000000000E+00  0.00000000000E+00  0.42561509872E-11  0.25126700000E+02  0.25126700000E+02 0.  1.
      622    2    1    2    0    0  0.36902438430E-04  0.22735941526E-02  0.11973900904E+02  0.11974263502E+02  0.93157962069E-01 0.  0.
       11    1    1    2    0    0 -0.40087875159E-02 -0.20472013244E-02  0.25334321872E-01  0.25736171015E-01  0.51109989000E-03 0.  1.
     -623    1    1    2    0    0  0.39718850774E-02 -0.22639282821E-03  0.76476368088E-03  0.25126700327E+02  0.25126700000E+02 0.  1.
     -611    1    3    3    0    0  0.36565494653E-01  0.10716449839E-01  0.92752375872E+01  0.92753212439E+01  0.10000000000E-01 0.  1.
      611    1    3    3    0    0 -0.36528592215E-01 -0.84428556868E-02  0.26986633164E+01  0.26989422585E+01  0.10000000000E-01 0. -1.
</event>
<event>
 6   0  0.6206631E-02  0.9118800E+02  0.7818608E-02  0.1180000E+00
       11   -1    0    0    0    0  0.00000000000E+00  0.00000000000E+00  0.11999999989E+02  0.12000000000E+02  0.51109989000E-03 0.  1.
     -623   -1    0    0    0    0  0.00000000000E+00  0.00000000000E+00  0.42561509872E-11  0.25126700000E+02  0.25126700000E+02 0.  1.
       11    1    1    2    0    0 -0.32124744846E-01 -0.29423951041E-01  0.23292073963E+00  0.23696012386E+00  0.51109989000E-03 0.  1.
     -623    1    1    2    0    0  0.23089723507E-01 -0.25686139334E-01  0.10153542761E-01  0.25126725789E+02  0.25126700000E+02 0.  1.
     -611    1    1    2    0    0  0.13560887917E+00  0.22655373669E-01  0.18159983108E+01  0.18212229130E+01  0.10000000000E-01 0. -1.
      611    1    1    2    0    0 -0.12657385783E+00  0.32454716707E-01  0.99409273959E+01  0.99417911737E+01  0.10000000000E-01 0.  1.
</event>
<event>
 7   0  0.6206631E-02  0.9118800E+02  0.7818608E-02  0.1180000E+00
       11   -1    0    0    0    0  0.00000000000E+00  0.00000000000E+00  0.11999999989E+02  0.12000000000E+02  0.51109989000E-03 0. -1.
     -623   -1    0    0    0    0  0.00000000000E+00  0.00000000000E+00  0.42561509872E-11  0.25126700000E+02  0.25126700000E+02 0. -1.
      622    2    1    2    0    0  0.52233522590E-01 -0.17974681800E-01  0.11186801222E+02  0.11187519622E+02  0.11411522639E+00 0.  0.
       11    1    1    2    0    0 -0.40653837193E-01 -0.35730094735E-03  0.81145298070E+00  0.81247096148E+00  0.51109989000E-03 0. -1.
     -623    1    1    2    0    0 -0.11579685397E-01  0.18331982747E-01  0.17457862770E-02  0.25126709416E+02  0.25126700000E+02 0. -1.
     -611    1    3    3    0    0  0.81255343354E-01 -0.15400487143E-01  0.98970917151E+01  0.98974422970E+01  0.10000000000E-01 0.  1.
      611    1    3    3    0    0 -0.29021820764E-01 -0.25741946569E-02  0.12897095071E+01  0.12900773253E+01  0.10000000000E-01 0. -1.
</event>
<event>
 7   0  0.6206631E-02  0.9118800E+02  0.7818608E-02  0.1180000E+00
       11   -1    0    0    0    0  0.00000000000E+00  0.00000000000E+00  0.11999999989E+02  0.12000000000E+02  0.51109989000E-03 0.  1.
     -623   -1    0    0    0    0  0.00000000000E+00  0.00000000000E+00  0.42561509872E-11  0.25126700000E+02  0.25126700000E+02 0.  1.
      622    2    1    2    0    0  0.33357260290E-01  0.20289609322E-01  0.10234870909E+02  0.10235139512E+02  0.63038989718E-01 0.  0.
       11    1    1    2    0    0 -0.31072990768E-01 -0.18982482463E-01  0.17644845995E+01  0.17648603424E+01  0.51109989000E-03 0.  1.
     -623    1    1    2    0    0 -0.22842695218E-02 -0.13071268582E-02  0.64448037857E-03  0.25126700146E+02  0.25126700000E+02 0.  1.
     -611    1    3    3    0    0 -0.10989116787E-01  0.23135132500E-01  0.47442563878E+01  0.47443360619E+01  0.10000000000E-01 0. -1.
      611    1    3    3    0    0  0.44346377077E-01 -0.28455231780E-02  0.54906145216E+01  0.54908034497E+01  0.10000000000E-01 0.  1.
</event>
<event>
 7   0  0.6206631E-02  0.9118800E+02  0.7818608E-02  0.1180000E+00
       11   -1    0    0    0    0  0.00000000000E+00  0.00000000000E+00  0.11999999989E+02  0.12000000000E+02  0.51109989000E-03 0. -1.
     -623   -1    0    0    0    0  0.00000000000E+00  0.00000000000E+00  0.42561509872E-11  0.25126700000E+02  0.25126700000E+02 0.  1.
      622    2    1    2    0    0 -0.93884260297E-04 -0.54992645880E-03  0.11966524562E+02  0.11966997323E+02  0.10636985931E+00 0.  0.
       11    1    1    2    0    0 -0.65829459979E-03  0.31658837432E-02  0.32839747287E-01  0.33002521065E-01  0.51109989000E-03 0. -1.
     -623    1    1    2    0    0  0.75217886009E-03 -0.26159572844E-02  0.63568031049E-03  0.25126700155E+02  0.25126700000E+02 0.  1.
     -611    1    3    3    0    0  0.14980464370E-01 -0.33452488139E-01  0.17884810941E+01  0.17888845986E+01  0.10000000000E-01 0. -1.
      611    1    3    3    0    0 -0.15074348631E-01  0.32902561681E-01  0.10178043467E+02  0.10178112725E+02  0.10000000000E-01 0.  1.
</event>
<event>
 7   0  0.6206631E-02  0.9118800E+02  0.7818608E-02  0.1180000E+00
       11   -1    0    0    0    0  0.00000000000E+00  0.00000000000E+00  0.11999999989E+02  0.12000000000E+02  0.51109989000E-03 0.  1.
     -623   -1    0    0    0    0  0.00000000000E+00  0.00000000000E+00  0.42561509872E-11  0.25126700000E+02  0.25126700000E+02 0.  1.
      622    2    1    2    0    0 -0.13804057280E-01  0.31471758240E-01  0.10291267973E+02  0.10291852494E+02  0.10416452247E+00 0.  0.
       11    1    1    2    0    0  0.16544000049E-01 -0.30016966391E-01  0.17078033274E+01  0.17081472971E+01  0.51109989000E-03 0.  1.
     -623    1    1    2    0    0 -0.27399427693E-02 -0.14547918491E-02  0.92868871265E-03  0.25126700209E+02  0.25126700000E+02 0.  1.
     -611    1    3    3    0    0 -0.32535340022E-01  0.36252271963E-01  0.97743747519E+01  0.97745012439E+01  0.10000000000E-01 0.  1.
      611    1    3    3    0    0  0.18731282742E-01 -0.47805137231E-02  0.51689322108E+00  0.51735125038E+00  0.10000000000E-01 0. -1.
</event>
<event>
 7   0  0.6206631E-02  0.9118800E+02  0.7818608E-02  0.1180000E+00
       11   -1    0    0    0    0  0.00000000000E+00  0.00000000000E+00  0.11999999989E+02  0.12000000000E+02  0.51109989000E-03 0.  1.
     -623   -1    0    0    0    0  0.00000000000E+00  0.00000000000E+00  0.42561509872E-11  0.25126700000E+02  0.25126700000E+02 0.  1.
      622    2    1    2    0    0 -0.21851077593E-02  0.33804314029E-02  0.11967113385E+02  0.11967296338E+02  0.66050541723E-01 0.  0.
       11    1    1    2    0    0  0.32844291322E-02 -0.24086070517E-02  0.32444973887E-01  0.32703614729E-01  0.51109989000E-03 0.  1.
     -623    1    1    2    0    0 -0.10993213729E-02 -0.97182435115E-03  0.44162985207E-03  0.25126700047E+02  0.25126700000E+02 0.  1.
     -611    1    3    3    0    0 -0.28109244680E-01  0.16119737973E-01  0.76219683477E+01  0.76220437855E+01  0.10000000000E-01 0.  1.
      611    1    3    3    0    0  0.25924136921E-01 -0.12739306571E-01  0.43451450376E+01  0.43452525529E+01  0.10000000000E-01 0.  1.
</event>
<event>
 7   0  0.6206631E-02  0.9118800E+02  0.7818608E-02  0.1180000E+00
       11   -1    0    0    0    0  0.00000000000E+00  0.00000000000E+00  0.11999999989E+02  0.12000000000E+02  0.51109989000E-03 0. -1.
     -623   -1    0    0    0    0  0.00000000000E+00  0.00000000000E+00  0.42561509872E-11  0.25126700000E+02  0.25126700000E+02 0. -1.
      622    2    1    2    0    0  0.31079591616E-02 -0.47722731725E-02  0.11494053301E+02  0.11494199079E+02  0.57608436110E-01 0.  0.
       11    1    1    2    0    0 -0.33854463295E-02  0.50156346646E-02  0.50576446047E+00  0.50580091788E+00  0.51109989000E-03 0. -1.
     -623    1    1    2    0    0  0.27748716780E-03 -0.24336149216E-03  0.18222723260E-03  0.25126700003E+02  0.25126700000E+02 0. -1.
     -611    1    3    3    0    0 -0.21486776771E-01  0.36599901924E-02  0.28499364677E+01  0.28500373588E+01  0.10000000000E-01 0. -1.
      611    1    3    3    0    0  0.24594735933E-01 -0.84322633649E-02  0.86441168337E+01  0.86441617198E+01  0.10000000000E-01 0.  1.
</event>
<event>
 7   0  0.6206631E-02  0.9118800E+02  0.7818608E-02  0.1180000E+00
       11   -1    0    0    0    0  0.00000000000E+00  0.00000000000E+00  0.11999999989E+02  0.12000000000E+02  0.51109989000E-03 0. -1.
     -623   -1    0    0    0    0  0.00000000000E+00  0.00000000000E+00  0.42561509872E-11  0.25126700000E+02  0.25126700000E+02 0. -1.
      622    2    1    2    0    0 -0.49676183266E-02  0.24857940411E-02  0.11954713289E+02  0.11955132678E+02  0.99983305122E-01 0.  0.
       11    1    1    2    0    0  0.12066141709E-02 -0.75270807046E-02  0.44211195549E-01  0.44866511974E-01  0.51109989000E-03 0. -1.
     -623    1    1    2    0    0  0.37610041557E-02  0.50412866635E-02  0.10755044043E-02  0.25126700810E+02  0.25126700000E+02 0. -1.
     -611    1    3    3    0    0 -0.37762023274E-01  0.22183321781E-01  0.30420394818E+01  0.30423711606E+01  0.10000000000E-01 0.  1.
      611    1    3    3    0    0  0.32794404947E-01 -0.19697527740E-01  0.89126738074E+01  0.89127615172E+01  0.10000000000E-01 0. -1.
</event>
<event>
 6   0  0.6206631E-02  0.9118800E+02  0.7818608E-02  0.1180000E+00
       11   -1    0    0    0    0  0.00000000000E+00  0.00000000000E+00  0.11999999989E+02  0.12000000000E+02  0.51109989000E-03 0.  1.
     -623   -1    0    0    0    0  0.00000000000E+00  0.00000000000E+00  0.42561509872E-11  0.25126700000E+02  0.25126700000E+02 0.  1.
       11    1    1    2    0    0  0.33242589479E+00  0.25992172872E+00  0.87671934422E+00  0.97298681920E+00  0.51109989000E-03 0.  1.
     -623    1    1    2    0    0  0.15184095948E-01 -0.15551034694E+00  0.11004091362E+00  0.25127426767E+02  0.25126700000E+02 0.  1.
     -611    1    1    2    0    0 -0.13977298132E+00 -0.18086288195E+00  0.25775937891E+01  0.25877282721E+01  0.10000000000E-01 0. -1.
      611    1    1    2    0    0 -0.20783700942E+00  0.76451500172E-01  0.84356459422E+01  0.84385581420E+01  0.10000000000E-01 0.  1.
</event>
<event>
 7   0  0.6206631E-02  0.9118800E+02  0.7818608E-02  0.1180000E+00
       11   -1    0    0    0    0  0.00000000000E+00  0.00000000000E+00  0.11999999989E+02  0.12000000000E+02  0.51109989000E-03 0. -1.
     -623   -1    0    0    0    0  0.00000000000E+00  0.00000000000E+00  0.42561509872E-11  0.25126700000E+02  0.25126700000E+02 0.  1.
      622    2    1    2    0    0  0.10145117100E-01  0.13099494329E-01  0.11922305658E+02  0.11922784060E+02  0.10551308048E+00 0.  0.
       11    1    1    2    0    0 -0.11524453497E-01 -0.12644749264E-01  0.75294842623E-01  0.77215783756E-01  0.51109989000E-03 0. -1.
     -623    1    1    2    0    0  0.13793363963E-02 -0.45474506523E-03  0.23994884499E-02  0.25126700157E+02  0.25126700000E+02 0.  1.
     -611    1    3    3    0    0  0.13719193590E-01 -0.19148455913E-01  0.76710061175E+00  0.76752734686E+00  0.10000000000E-01 0.  1.
      611    1    3    3    0    0 -0.35740764897E-02  0.32247950242E-01  0.11155205046E+02  0.11155256713E+02  0.10000000000E-01 0. -1.
</event>
<event>
 7   0  0.6206631E-02  0.9118800E+02  0.7818608E-02  0.1180000E+00
       11   -1    0    0    0    0  0.00000000000E+00  0.00000000000E+00  0.11999999989E+02  0.12000000000E+02  0.51109989000E-03 0.  1.
     -623   -1    0    0    0    0  0.00000000000E+00  0.00000000000E+00  0.42561509872E-11  0.25126700000E+02  0.25126700000E+02 0.  1.
      622    2    1    2    0    0 -0.31078532684E-02  0.11553951212E-01  0.93916712195E+01  0.93918040488E+01  0.48495805843E-01 0.  0.
       11    1    1    2    0    0  0.20962651120E-02 -0.13469850037E-01  0.26081601823E+01  0.26081958571E+01  0.51109989000E-03 0.  1.
     -623    1    1    2    0    0  0.10115881564E-02  0.19158988251E-02  0.16858717474E-03  0.25126700094E+02  0.25126700000E+02 0.  1.
     -611    1    3    3    0    0  0.19728804171E-01  0.73390560944E-02  0.34266356395E+01  0.34267148835E+01  0.10000000000E-01 0. -1.
      611    1    3    3    0    0 -0.22836657439E-01  0.42148951174E-02  0.59650355801E+01  0.59650891653E+01  0.10000000000E-01 0.  1.
</event>
<event>
 7   0  0.6206631E-02  0.9118800E+02  0.7818608E-02  0.1180000E+00
       11   -1    0    0    0    0  0.00000000000E+00  0.00000000000E+00  0.11999999989E+02  0.12000000000E+02  0.51109989000E-03 0.  1.
     -623   -1    0    0    0    0  0.00000000000E+00  0.00000000000E+00  0.42561509872E-11  0.25126700000E+02  0.25126700000E+02 0. -1.
      622    2    1    2    0    0  0.13087606139E-03 -0.20171793527E-01  0.99577044113E+01  0.99583140345E+01  0.10832519732E+00 0.  0.
       11    1    1    2    0    0 -0.96467566471E-04  0.19627839312E-01  0.20415915347E+01  0.20416859497E+01  0.51109989000E-03 0.  1.
     -623    1    1    2    0    0 -0.34408494923E-04  0.54395421463E-03  0.70404307852E-03  0.25126700016E+02  0.25126700000E+02 0. -1.
     -611    1    3    3    0    0 -0.28861946054E-02 -0.12261678167E-01  0.98140892323E+01  0.98141024113E+01  0.10000000000E-01 0.  1.
      611    1    3    3    0    0  0.30170706668E-02 -0.79101153591E-02  0.14361517897E+00  0.14421162322E+00  0.10000000000E-01 0.  1.
</event>
<event>
 7   0  0.6206631E-02  0.9118800E+02  0.7818608E-02  0.1180000E+00
       11   -1    0    0    0    0  0.00000000000E+00  0.00000000000E+00  0.11999999989E+02  0.12000000000E+02  0.51109989000E-03 0. -1.
     -623   -1    0    0    0    0  0.00000000000E+00  0.00000000000E+00  0.42561509872E-11  0.25126700000E+02  0.25126700000E+02 0. -1.
      622    2    1    2    0    0 -0.33144888301E-01  0.23179909294E-01  0.88536469258E+01  0.88539372871E+01  0.59209005004E-01 0.  0.
       11    1    1    2    0    0  0.31723981694E-01 -0.23166154783E-01  0.31458173758E+01  0.31460626670E+01  0.51109989000E-03 0. -1.
     -623    1    1    2    0    0  0.14209066064E-02 -0.13754510577E-04  0.53568758697E-03  0.25126700046E+02  0.25126700000E+02 0. -1.
     -611    1    3    3    0    0 -0.39703422713E-01  0.33520528499E-01  0.55415575280E+01  0.55418101577E+01  0.10000000000E-01 0. -1.
      611    1    3    3    0    0  0.65585344125E-02 -0.10340619206E-01  0.33120893978E+01  0.33121271294E+01  0.10000000000E-01 0.  1.
</event>
<event>
 7   0  0.6206631E-02  0.9118800E+02  0.7818608E-02  0.1180000E+00
       11   -1    0    0    0    0  0.00000000000E+00  0.00000000000E+00  0.11999999989E+02  0.12000000000E+02  0.51109989000E-03 0. -1.
     -623   -1    0    0    0    0  0.00000000000E+00  0.00000000000E+00  0.42561509872E-11  0.25126700000E+02  0.25126700000E+02 0.  1.
      622    2    1    2    0    0  0.86032813281E-02 -0.99818312330E-02  0.11983418935E+02  0.11984066221E+02  0.12385539793E+00 0.  0.
       11    1    1    2    0    0  0.30308683184E-02 -0.76866379790E-02  0.13603829715E-01  0.15924696929E-01  0.51109989000E-03 0. -1.
     -623    1    1    2    0    0 -0.11634149647E-01  0.17668469212E-01  0.29772239551E-02  0.25126709082E+02  0.25126700000E+02 0.  1.
     -611    1    3    3    0    0  0.19889816510E-01  0.19690031072E-02  0.39527446826E+00  0.39590578049E+00  0.10000000000E-01 0.  1.
      611    1    3    3    0    0 -0.11286535182E-01 -0.11950834340E-01  0.11588144467E+02  0.11588160441E+02  0.10000000000E-01 0. -1.
</event>
<event>
 7   0  0.6206631E-02  0.9118800E+02  0.7818608E-02  0.1180000E+00
       11   -1    0    0    0    0  0.00000000000E+00  0.00000000000E+00  0.11999999989E+02  0.12000000000E+02  0.51109989000E-03 0.  1.
     -623   -1    0    0    0    0  0.00000000000E+00  0.00000000000E+00  0.42561509872E-11  0.25126700000E+02  0.25126700000E+02 0.  1.
      622    2    1    2    0    0 -0.25427508953E-01  0.84215371851E-02  0.11395288765E+02  0.11395733493E+02  0.97048066210E-01 0.  0.
       11    1    1    2    0    0 -0.43076511051E-01  0.35313655801E-01  0.60156132967E+00  0.60413486463E+00  0.51109989000E-03 0.  1.
     -623    1    1    2    0    0  0.68504020005E-01 -0.43735192986E-01  0.31498944532E-02  0.25126831642E+02  0.25126700000E+02 0.  1.
     -611    1    3    3    0    0 -0.34152340018E-01 -0.32409455430E-01  0.35375417415E+01  0.35378691790E+01  0.10000000000E-01 0. -1.
      611    1    3    3    0    0  0.87248310648E-02  0.40830992615E-01  0.78577470235E+01  0.78578643141E+01  0.10000000000E-01 0.  1.
</event>
<event>
 7   0  0.6206631E-02  0.9118800E+02  0.7818608E-02  0.1180000E+00
       11   -1    0    0    0    0  0.00000000000E+00  0.00000000000E+00  0.11999999989E+02  0.12000000000E+02  0.51109989000E-03 0.  1.
     -623   -1    0    0    0    0  0.00000000000E+00  0.00000000000E+00  0.42561509872E-11  0.25126700000E+02  0.25126700000E+02 0.  1.
      622    2    1    2    0    0 -0.22623512351E-02 -0.41951755915E-02  0.11842772978E+02  0.11843088595E+02  0.86330410740E-01 0.  0.
       11    1    1    2    0    0  0.18295715573E-02  0.48761338818E-02  0.15682410152E+00  0.15691138918E+00  0.51109989000E-03 0.  1.
     -623    1    1    2    0    0  0.43277967777E-03 -0.68095829025E-03  0.40290983729E-03  0.25126700016E+02  0.25126700000E+02 0.  1.
     -611    1    3    3    0    0  0.18102524623E-02  0.30843014640E-01  0.21403261998E+01  0.21405725426E+01  0.10000000000E-01 0. -1.
      611    1    3    3    0    0 -0.40726036974E-02 -0.35038190232E-01  0.97024467779E+01  0.97025160520E+01  0.10000000000E-01 0.  1.
</event>
<event>
 7   0  0.6206631E-02  0.9118800E+02  0.7818608E-02  0.1180000E+00
       11   -1    0    0    0    0  0.00000000000E+00  0.00000000000E+00  0.11999999989E+02  0.12000000000E+02  0.51109989000E-03 0.  1.
     -623   -1    0    0    0    0  0.00000000000E+00  0.00000000000E+00  0.42561509872E-11  0.25126700000E+02  0.25126700000E+02 0.  1.
      622    2    1    2    0    0  0.37445491902E-02  0.20576236412E-02  0.11975893585E+02  0.11976332268E+02  0.10241674724E+00 0.  0.
       11    1    1    2    0    0 -0.11762408137E-02  0.38578068003E-03  0.23629555166E-01  0.23667477045E-01  0.51109989000E-03 0.  1.
     -623    1    1    2    0    0 -0.25683083765E-02 -0.24434043212E-02  0.47684905642E-03  0.25126700255E+02  0.25126700000E+02 0.  1.
     -611    1    3    3    0    0 -0.20406451380E-02  0.33337610537E-01  0.15775640266E+01  0.15779492446E+01  0.10000000000E-01 0. -1.
      611    1    3    3    0    0  0.57851943282E-02 -0.31279986895E-01  0.10398329558E+02  0.10398383024E+02  0.10000000000E-01 0.  1.
</event>
<event>
 7   0  0.6206631E-02  0.9118800E+02  0.7818608E-02  0.1180000E+00
       11   -1    0    0    0    0  0.00000000000E+00  0.00000000000E+00  0.11999999989E+02  0.12000000000E+02  0.51109989000E-03 0. -1.
     -623   -1    0    0    0    0  0.00000000000E+00  0.00000000000E+00  0.42561509872E-11  0.25126700000E+02  0.25126700000E+02 0. -1.
      622    2    1    2    0    0 -0.17184569035E-03  0.52798835788E-02  0.11621874598E+02  0.11622277555E+02  0.96635816052E-01 0.  0.
       11    1    1    2    0    0 -0.28634552363E-03 -0.52482787277E-02  0.37768552004E+00  0.37772243737E+00  0.51109989000E-03 0. -1.
     -623    1    1    2    0    0  0.45819121398E-03 -0.31604851138E-04  0.43987123428E-03  0.25126700008E+02  0.25126700000E+02 0. -1.
     -611    1    3    3    0    0  0.35103528578E-01  0.50239377490E-02  0.20392945761E+01  0.20396273840E+01  0.10000000000E-01 0.  1.
      611    1    3    3    0    0 -0.35275374269E-01  0.25594582983E-03  0.95825800218E+01  0.95826501706E+01  0.10000000000E-01 0. -1.
</event>
<event>
 7   0  0.6206631E-02  0.9118800E+02  0.7818608E-02  0.1180000E+00
       11   -1    0    0    0    0  0.00000000000E+00  0.00000000000E+00  0.11999999989E+02  0.12000000000E+02  0.51109989000E-03 0.  1.
     -623   -1    0    0    0    0  0.00000000000E+00  0.00000000000E+00  0.42561509872E-11  0.25126700000E+02  0.25126700000E+02 0.  1.
      622    2    1    2    0    0 -0.18338467053E-01  0.26824775850E-02  0.11898489175E+02  0.11898993857E+02  0.10801231837E+00 0.  0.
       11    1    1    2    0    0  0.14563937756E-01 -0.74498177523E-02  0.99670504137E-01  0.10100533989E+00  0.51109989000E-03 0.  1.
     -623    1    1    2    0    0  0.37745292969E-02  0.47673401674E-02  0.18403098007E-02  0.25126700803E+02  0.25126700000E+02 0.  1.
     -611    1    3    3    0    0 -0.43654464826E-01 -0.21658248390E-01  0.10157350329E+02  0.10157472151E+02  0.10000000000E-01 0.  1.
      611    1    3    3    0    0  0.25315997773E-01  0.24340725975E-01  0.17411388464E+01  0.17415217062E+01  0.10000000000E-01 0. -1.
</event>
<event>
 7   0  0.6206631E-02  0.9118800E+02  0.7818608E-02  0.1180000E+00
       11   -1    0    0    0    0  0.00000000000E+00  0.00000000000E+00  0.11999999989E+02  0.12000000000E+02  0.51109989000E-03 0.  1.
     -623   -1    0    0    0    0  0.00000000000E+00  0.00000000000E+00  0.42561509872E-11  0.25126700000E+02  0.25126700000E+02 0.  1.
      622    2    1    2    0    0 -0.18766174612E-01 -0.41723871619E-01  0.10868698874E+02  0.10869226645E+02  0.96848265338E-01 0.  0.
       11    1    1    2    0    0  0.17808940128E-01  0.50699709695E-01  0.11294939958E+01  0.11307716687E+01  0.51109989000E-03 0.  1.
     -623    1    1    2    0    0  0.95723448402E-03 -0.89758380758E-02  0.18071189701E-02  0.25126701686E+02  0.25126700000E+02 0.  1.
     -611    1    3    3    0    0  0.17107959047E-01 -0.57736759369E-01  0.81126154868E+01  0.81128451392E+01  0.10000000000E-01 0.  1.
      611    1    3    3    0    0 -0.35874133660E-01  0.16012887750E-01  0.27560833875E+01  0.27563815057E+01  0.10000000000E-01 0. -1.
</event>
<event>
 7   0  0.6206631E-02  0.9118800E+02  0.7818608E-02  0.1180000E+00
       11   -1    0    0    0    0  0.00000000000E+00  0.00000000000E+00  0.11999999989E+02  0.12000000000E+02  0.51109989000E-03 0. -1.
     -623   -1    0    0    0    0  0.00000000000E+00  0.00000000000E+00  0.42561509872E-11  0.25126700000E+02  0.25126700000E+02 0. -1.
      622    2    1    2    0    0 -0.10716062497E-01 -0.16857876233E-01  0.10647367331E+02  0.10647699773E+02  0.81733479675E-01 0.  0.
       11    1    1    2    0    0 -0.12333266611E-01  0.81677469727E-02  0.13522071419E+01  0.13522881488E+01  0.51109989000E-03 0. -1.
     -623    1    1    2    0    0  0.23049329108E-01  0.86901292604E-02  0.42551664625E-03  0.25126712078E+02  0.25126700000E+02 0. -1.
     -611    1    3    3    0    0 -0.25897931081E-03 -0.48247726383E-01  0.58079374526E+01  0.58081464654E+01  0.10000000000E-01 0. -1.
      611    1    3    3    0    0 -0.10457083186E-01  0.31389850149E-01  0.48394298779E+01  0.48395533075E+01  0.10000000000E-01 0.  1.
</event>
<event>
 7   0  0.6206631E-02  0.9118800E+02  0.7818608E-02  0.1180000E+00
       11   -1    0    0    0    0  0.00000000000E+00  0.00000000000E+00  0.11999999989E+02  0.12000000000E+02  0.51109989000E-03 0.  1.
     -623   -1    0    0    0    0  0.00000000000E+00  0.00000000000E+00  0.42561509872E-11  0.25126700000E+02  0.25126700000E+02 0.  1.
      622    2    1    2    0    0  0.13218815717E-01  0.24904961204E-02  0.11826721808E+02  0.11827598949E+02  0.14341280932E+00 0.  0.
       11    1    1    2    0    0  0.22056879712E-01  0.18664251736E-01  0.16992738564E+00  0.17236716001E+00  0.51109989000E-03 0.  1.
     -623    1    1    2    0    0 -0.35275695430E-01 -0.21154747856E-01  0.33507951806E-02  0.25126733891E+02  0.25126700000E+02 0.  1.
     -611    1    3    3    0    0  0.65644185084E-01 -0.33172333380E-01  0.79420727257E+01  0.79424195774E+01  0.10000000000E-01 0.  1.
      611    1    3    3    0    0 -0.52425369367E-01  0.35662829500E-01  0.38846490826E+01  0.38851793719E+01  0.10000000000E-01 0. -1.
</event>
<event>
 7   0  0.6206631E-02  0.9118800E+02  0.7818608E-02  0.1180000E+00
       11   -1    0    0    0    0  0.00000000000E+00  0.00000000000E+00  0.11999999989E+02  0.12000000000E+02  0.51109989000E-03 0. -1.
     -623   -1    0    0    0    0  0.00000000000E+00  0.00000000000E+00  0.42561509872E-11  0.25126700000E+02  0.25126700000E+02 0. -1.
      622    2    1    2    0    0 -0.24690620253E-03  0.97356358800E-02  0.11921937301E+02  0.11922275973E+02  0.89333802585E-01 0.  0.
       11    1    1    2    0    0  0.18861986378E-02  0.50347702352E-02  0.77531751131E-01  0.77719626306E-01  0.51109989000E-03 0. -1.
     -623    1    1    2    0    0 -0.16392924353E-02 -0.14770406115E-01  0.53093686213E-03  0.25126704400E+02  0.25126700000E+02 0. -1.
     -611    1    3    3    0    0 -0.37340972245E-01  0.26996706353E-01  0.56089946702E+01  0.56091928457E+01  0.10000000000E-01 0.  1.
      611    1    3    3    0    0  0.37094066043E-01 -0.17261070473E-01  0.63129426310E+01  0.63130831276E+01  0.10000000000E-01 0. -1.
</event>
<event>
 7   0  0.6206631E-02  0.9118800E+02  0.7818608E-02  0.1180000E+00
       11   -1    0    0    0    0  0.00000000000E+00  0.00000000000E+00  0.11999999989E+02  0.12000000000E+02  0.51109989000E-03 0.  1.
     -623   -1    0    0    0    0  0.00000000000E+00  0.00000000000E+00  0.42561509872E-11  0.25126700000E+02  0.25126700000E+02 0.  1.
      622    2    1    2    0    0 -0.17450866558E-01  0.46857879987E-03  0.10408745735E+02  0.10408981564E+02  0.67857741056E-01 0.  0.
       11    1    1    2    0    0  0.16753970518E-01 -0.27927444860E-03  0.15909301015E+01  0.15910184231E+01  0.51109989000E-03 0.  1.
     -623    1    1    2    0    0  0.69689603953E-03 -0.18930435128E-03  0.32415224890E-03  0.25126700012E+02  0.25126700000E+02 0.  1.
     -611    1    3    3    0    0 -0.26971050106E-01  0.45454954925E-02  0.98715566991E+01  0.98715996557E+01  0.10000000000E-01 0.  1.
      611    1    3    3    0    0  0.95201835482E-02 -0.40769166926E-02  0.53718903620E+00  0.53738190866E+00  0.10000000000E-01 0.  1.
</event>
<event>
 7   0  0.6206631E-02  0.9118800E+02  0.7818608E-02  0.1180000E+00
       11   -1    0    0    0    0  0.00000000000E+00  0.00000000000E+00  0.11999999989E+02  0.12000000000E+02  0.51109989000E-03 0.  1.
     -623   -1    0    0    0    0  0.00000000000E+00  0.00000000000E+00  0.42561509872E-11  0.25126700000E+02  0.25126700000E+02 0. -1.
      622    2    1    2    0    0  0.27068947496E-02  0.23072859431E-02  0.11888016787E+02  0.11888466088E+02  0.10329648785E+00 0.  0.
       11    1    1    2    0    0 -0.87080393539E-03 -0.52073735519E-02  0.11140746569E+00  0.11153367058E+00  0.51109989000E-03 0.  1.
     -623    1    1    2    0    0 -0.18360908142E-02  0.29000876088E-02  0.57573679924E-03  0.25126700241E+02  0.25126700000E+02 0. -1.
     -611    1    3    3    0    0 -0.24924793252E-01  0.42504397160E-01  0.44838676528E+01  0.44841495289E+01  0.10000000000E-01 0. -1.
      611    1    3    3    0    0  0.27631688002E-01 -0.40197111217E-01  0.74041491338E+01  0.74043165595E+01  0.10000000000E-01 0.  1.
</event>
<event>
 7   0  0.6206631E-02  0.9118800E+02  0.7818608E-02  0.1180000E+00
       11   -1    0    0    0    0  0.00000000000E+00  0.00000000000E+00  0.11999999989E+02  0.12000000000E+02  0.51109989000E-03 0.  1.
     -623   -1    0    0    0    0  0.00000000000E+00  0.00000000000E+00  0.42561509872E-11  0.25126700000E+02  0.25126700000E+02 0. -1.
      622    2    1    2    0    0 -0.25372807228E-01  0.17675332803E-01  0.48098914384E+01  0.48107479395E+01  0.85345715989E-01 0.  0.
       11    1    1    2    0    0  0.19091810397E-01 -0.13946540228E-01  0.71892120868E+01  0.71892509828E+01  0.51109989000E-03 0.  1.
     -623    1    1    2    0    0  0.62809968305E-02 -0.37287925750E-02  0.89646388422E-03  0.25126701078E+02  0.25126700000E+02 0. -1.
     -611    1    3    3    0    0  0.11103791549E-01  0.13288290127E-01  0.28681863717E+00  0.28751487521E+00  0.10000000000E-01 0.  1.
      611    1    3    3    0    0 -0.36476598777E-01  0.43870426757E-02  0.45230728012E+01  0.45232330642E+01  0.10000000000E-01 0. -1.
</event>
<event>
 7   0  0.6206631E-02  0.9118800E+02  0.7818608E-02  0.1180000E+00
       11   -1    0    0    0    0  0.00000000000E+00  0.00000000000E+00  0.11999999989E+02  0.12000000000E+02  0.51109989000E-03 0.  1.
     -623   -1    0    0    0    0  0.00000000000E+00  0.00000000000E+00  0.42561509872E-11  0.25126700000E+02  0.25126700000E+02 0.  1.
      622    2    1    2    0    0  0.14511510762E-01 -0.59684068157E-03  0.11746842262E+02  0.11747032363E+02  0.65232493978E-01 0.  0.
       11    1    1    2    0    0 -0.10994991217E-01 -0.24415113088E-02  0.25271583597E+00  0.25296720298E+00  0.51109989000E-03 0.  1.
     -623    1    1    2    0    0 -0.35165195454E-02  0.30383519903E-02  0.44189118433E-03  0.25126700434E+02  0.25126700000E+02 0.  1.
     -611    1    3    3    0    0  0.16670889457E-01  0.10559648583E-01  0.11064931923E+02  0.11064954039E+02  0.10000000000E-01 0.  1.
      611    1    3    3    0    0 -0.21593786952E-02 -0.11156489264E-01  0.68191033911E+00  0.68207832450E+00  0.10000000000E-01 0. -1.
</event>
<event>
 7   0  0.6206631E-02  0.9118800E+02  0.7818608E-02  0.1180000E+00
       11   -1    0    0    0    0  0.00000000000E+00  0.00000000000E+00  0.11999999989E+02  0.12000000000E+02  0.51109989000E-03 0.  1.
     -623   -1    0    0    0    0  0.00000000000E+00  0.00000000000E+00  0.42561509872E-11  0.25126700000E+02  0.25126700000E+02 0.  1.
      622    2    1    2    0    0  0.32871643154E-02  0.74666358166E-02  0.11917363824E+02  0.11917800067E+02  0.10164330885E+00 0.  0.
       11    1    1    2    0    0  0.28123968610E-02 -0.48788456683E-02  0.82004330335E-01  0.82199051868E-01  0.51109989000E-03 0.  1.
     -623    1    1    2    0    0 -0.60995611764E-02 -0.25877901483E-02  0.63183498304E-03  0.25126700882E+02  0.25126700000E+02 0.  1.
     -611    1    3    3    0    0 -0.39595558851E-01 -0.18845751080E-01  0.75701675196E+01  0.75703011330E+01  0.10000000000E-01 0.  1.
      611    1    3    3    0    0  0.42882723166E-01  0.26312386897E-01  0.43471963042E+01  0.43474989335E+01  0.10000000000E-01 0. -1.
</event>
<event>
 7   0  0.6206631E-02  0.9118800E+02  0.7818608E-02  0.1180000E+00
       11   -1    0    0    0    0  0.00000000000E+00  0.00000000000E+00  0.11999999989E+02  0.12000000000E+02  0.51109989000E-03 0.  1.
     -623   -1    0    0    0    0  0.00000000000E+00  0.00000000000E+00  0.42561509872E-11  0.25126700000E+02  0.25126700000E+02 0.  1.
      622    2    1    2    0    0 -0.44101090956E-02  0.78252064603E-02  0.11901469262E+02  0.11901898234E+02  0.10064947366E+00 0.  0.
       11    1    1    2    0    0 -0.47456206406E-03 -0.15835108917E-02  0.98085250870E-01  0.98100511606E-01  0.51109989000E-03 0.  1.
     -623    1    1    2    0    0  0.48846711596E-02 -0.62416955685E-02  0.44547673979E-03  0.25126701254E+02  0.25126700000E+02 0.  1.
     -611    1    3    3    0    0  0.95256939378E-02 -0.19233144974E-02  0.11438820441E+02  0.11438828941E+02  0.10000000000E-01 0.  1.
      611    1    3    3    0    0 -0.13935803033E-01  0.97485209577E-02  0.46264882006E+00  0.46306929391E+00  0.10000000000E-01 0. -1.
</event>
<event>
 7   0  0.6206631E-02  0.9118800E+02  0.7818608E-02  0.1180000E+00
       11   -1    0    0    0    0  0.00000000000E+00  0.00000000000E+00  0.11999999989E+02  0.12000000000E+02  0.51109989000E-03 0.  1.
     -623   -1    0    0    0    0  0.00000000000E+00  0.00000000000E+00  0.42561509872E-11  0.25126700000E+02  0.25126700000E+02 0. -1.
      622    2    1    2    0    0  0.11929408785E-02  0.36251979145E-02  0.11579846507E+02  0.11580396762E+02  0.11282487880E+00 0.  0.
       11    1    1    2    0    0  0.14523444261E-02 -0.33781062617E-02  0.41958666849E+00  0.41960309163E+00  0.51109989000E-03 0.  1.
     -623    1    1    2    0    0 -0.26452853046E-02 -0.24709165289E-03  0.56681319518E-03  0.25126700147E+02  0.25126700000E+02 0. -1.
     -611    1    3    3    0    0 -0.96218897570E-02 -0.40699443584E-01  0.91519109363E+01  0.91520119543E+01  0.10000000000E-01 0. -1.
      611    1    3    3    0    0  0.10814830635E-01  0.44324641498E-01  0.24279355711E+01  0.24283848072E+01  0.10000000000E-01 0.  1.
</event>
<event>
 7   0  0.6206631E-02  0.9118800E+02  0.7818608E-02  0.1180000E+00
       11   -1    0    0    0    0  0.00000000000E+00  0.00000000000E+00  0.11999999989E+02  0.12000000000E+02  0.51109989000E-03 0.  1.
     -623   -1    0    0    0    0  0.00000000000E+00  0.00000000000E+00  0.42561509872E-11  0.25126700000E+02  0.25126700000E+02 0. -1.
      622    2    1    2    0    0  0.40063481511E-01 -0.23463383439E+00  0.98213981269E+01  0.98252965913E+01  0.14118718012E+00 0.  0.
       11    1    1    2    0    0 -0.59806432553E-01  0.26405558883E+00  0.21577502649E+01  0.21746697749E+01  0.51109989000E-03 0.  1.
     -623    1    1    2    0    0  0.19742951042E-01 -0.29421754434E-01  0.20851597324E-01  0.25126733634E+02  0.25126700000E+02 0. -1.
     -611    1    3    3    0    0  0.51139041823E-01 -0.10501861005E+00  0.68888774971E+01  0.68898749829E+01  0.10000000000E-01 0.  1.
      611    1    3    3    0    0 -0.11075560313E-01 -0.12961522434E+00  0.29325206299E+01  0.29354216084E+01  0.10000000000E-01 0. -1.
</event>
<event>
 7   0  0.6206631E-02  0.9118800E+02  0.7818608E-02  0.1180000E+00
       11   -1    0    0    0    0  0.00000000000E+00  0.00000000000E+00  0.11999999989E+02  0.12000000000E+02  0.51109989000E-03 0. -1.
     -623   -1    0    0    0    0  0.00000000000E+00  0.00000000000E+00  0.42561509872E-11  0.25126700000E+02  0.25126700000E+02 0.  1.
      622    2    1    2    0    0 -0.21379659367E-01  0.89793184139E-02  0.50891314159E+01  0.50897341397E+01  0.74815279233E-01 0.  0.
       11    1    1    2    0    0  0.16878811741E-01 -0.99185778091E-02  0.69102376807E+01  0.69102654317E+01  0.51109989000E-03 0. -1.
     -623    1    1    2    0    0  0.45008476253E-02  0.93925939521E-03  0.63089251944E-03  0.25126700429E+02  0.25126700000E+02 0.  1.
     -611    1    3    3    0    0 -0.16381839562E-01  0.34289051386E-01  0.41729739314E+01  0.41731589397E+01  0.10000000000E-01 0. -1.
      611    1    3    3    0    0 -0.49978198044E-02 -0.25309732972E-01  0.91615748450E+00  0.91657519997E+00  0.10000000000E-01 0.  1.
</event>
<event>
 7   0  0.6206631E-02  0.9118800E+02  0.7818608E-02  0.1180000E+00
       11   -1    0    0    0    0  0.00000000000E+00  0.00000000000E+00  0.11999999989E+02  0.12000000000E+02  0.51109989000E-03 0. -1.
     -623   -1    0    0    0    0  0.00000000000E+00  0.00000000000E+00  0.42561509872E-11  0.25126700000E+02  0.25126700000E+02 0.  1.
      622    2    1    2    0    0  0.84622857579E-02  0.30520246077E-02  0.11865921760E+02  0.11866342013E+02  0.99461664127E-01 0.  0.
       11    1    1    2    0    0 -0.29102422523E-02  0.80003291809E-02  0.13338255207E+00  0.13365493331E+00  0.51109989000E-03 0. -1.
     -623    1    1    2    0    0 -0.55520435056E-02 -0.11052353789E-01  0.69567684509E-03  0.25126703054E+02  0.25126700000E+02 0.  1.
     -611    1    3    3    0    0  0.33841790151E-01  0.40101582220E-01  0.69270947616E+01  0.69273007182E+01  0.10000000000E-01 0.  1.
      611    1    3    3    0    0 -0.25379504393E-01 -0.37049557612E-01  0.49388269986E+01  0.49390412947E+01  0.10000000000E-01 0. -1.
</event>
<event>
 7   0  0.6206631E-02  0.9118800E+02  0.7818608E-02  0.1180000E+00
       11   -1    0    0    0    0  0.00000000000E+00  0.00000000000E+00  0.11999999989E+02  0.12000000000E+02  0.51109989000E-03 0.  1.
     -623   -1    0    0    0    0  0.00000000000E+00  0.00000000000E+00  0.42561509872E-11  0.25126700000E+02  0.25126700000E+02 0.  1.
      622    2    1    2    0    0  0.60663261048E-02 -0.94491786321E-02  0.11353246648E+02  0.11353876283E+02  0.11904244643E+00 0.  0.
       11    1    1    2    0    0 -0.55465932990E-02  0.76448565932E-02  0.64605439788E+00  0.64612363738E+00  0.51109989000E-03 0.  1.
     -623    1    1    2    0    0 -0.51973280588E-03  0.18043220389E-02  0.69894314050E-03  0.25126700080E+02  0.25126700000E+02 0.  1.
     -611    1    3    3    0    0  0.52907125057E-01  0.10153715319E-01  0.32294561158E+01  0.32299209071E+01  0.10000000000E-01 0. -1.
      611    1    3    3    0    0 -0.46840798952E-01 -0.19602893951E-01  0.81237905322E+01  0.81239553757E+01  0.10000000000E-01 0.  1.
</event>
<event>
 7   0  0.6206631E-02  0.9118800E+02  0.7818608E-02  0.1180000E+00
       11   -1    0    0    0    0  0.00000000000E+00  0.00000000000E+00  0.11999999989E+02  0.12000000000E+02  0.51109989000E-03 0. -1.
     -623   -1    0    0    0    0  0.00000000000E+00  0.00000000000E+00  0.42561509872E-11  0.25126700000E+02  0.25126700000E+02 0.  1.
      622    2    1    2    0    0  0.41419551246E-01  0.82777580896E-01  0.11399996047E+02  0.11400583083E+02  0.69405041917E-01 0.  0.
       11    1    1    2    0    0 -0.77032872098E-01 -0.56230614748E-01  0.59173958595E+00  0.59937629601E+00  0.51109989000E-03 0. -1.
     -623    1    1    2    0    0  0.35613320852E-01 -0.26546966148E-01  0.82643565464E-02  0.25126740621E+02  0.25126700000E+02 0.  1.
     -611    1    3    3    0    0  0.42213884157E-01  0.45727169560E-01  0.94446041480E+01  0.94448144766E+01  0.10000000000E-01 0. -1.
      611    1    3    3    0    0 -0.79433291013E-03  0.37050411336E-01  0.19553918987E+01  0.19557686063E+01  0.10000000000E-01 0. -1.
</event>
<event>
 7   0  0.6206631E-02  0.9118800E+02  0.7818608E-02  0.1180000E+00
       11   -1    0    0    0    0  0.00000000000E+00  0.00000000000E+00  0.11999999989E+02  0.12000000000E+02  0.51109989000E-03 0. -1.
     -623   -1    0    0    0    0  0.00000000000E+00  0.00000000000E+00  0.42561509872E-11  0.25126700000E+02  0.25126700000E+02 0.  1.
      622    2    1    2    0    0  0.87347213138E-01 -0.10714327938E-01  0.86508345200E+01  0.86526775298E+01  0.15539050584E+00 0.  0.
       11    1    1    2    0    0 -0.82171681720E-01  0.66188467170E-02  0.33463061085E+01  0.33473214408E+01  0.51109989000E-03 0. -1.
     -623    1    1    2    0    0 -0.51755314177E-02  0.40954812212E-02  0.28593605806E-02  0.25126701029E+02  0.25126700000E+02 0.  1.
     -611    1    3    3    0    0 -0.36493233374E-02 -0.55651069667E-01  0.14287351643E+01  0.14298582198E+01  0.10000000000E-01 0.  1.
      611    1    3    3    0    0  0.90996536476E-01  0.44936741729E-01  0.72220993557E+01  0.72228193100E+01  0.10000000000E-01 0. -1.
</event>
<event>
 7   0  0.6206631E-02  0.9118800E+02  0.7818608E-02  0.1180000E+00
       11   -1    0    0    0    0  0.00000000000E+00  0.00000000000E+00  0.11999999989E+02  0.12000000000E+02  0.51109989000E-03 0. -1.
     -623   -1    0    0    0    0  0.00000000000E+00  0.00000000000E+00  0.42561509872E-11  0.25126700000E+02  0.25126700000E+02 0. -1.
      622    2    1    2    0    0 -0.10055678913E-01  0.10987991211E-01  0.99029282812E+01  0.99029828614E+01  0.29311382922E-01 0.  0.
       11    1    1    2    0    0  0.10992456678E-01  0.51469007679E-02  0.20969767510E+01  0.20970119409E+01  0.51109989000E-03 0. -1.
     -623    1    1    2    0    0 -0.93677776532E-03 -0.16134891978E-01  0.94957231084E-04  0.25126705198E+02  0.25126700000E+02 0. -1.
     -611    1    3    3    0    0 -0.13396641764E-01  0.63768390831E-02  0.79857527253E+01  0.79857727693E+01  0.10000000000E-01 0. -1.
      611    1    3    3    0    0  0.33409628512E-02  0.46111521276E-02  0.19171755560E+01  0.19172100921E+01  0.10000000000E-01 0. -1.
</event>
<event>
 7   0  0.6206631E-02  0.9118800E+02  0.7818608E-02  0.1180000E+00
       11   -1    0    0    0    0  0.00000000000E+00  0.00000000000E+00  0.11999999989E+02  0.12000000000E+02  0.51109989000E-03 0. -1.
     -623   -1    0    0    0    0  0.00000000000E+00  0.00000000000E+00  0.42561509872E-11  0.25126700000E+02  0.25126700000E+02 0. -1.
      622    2    1    2    0    0  0.30708667488E-02 -0.31212405860E-02  0.11963672866E+02  0.11964309411E+02  0.12333719204E+00 0.  0.
       11    1    1    2    0    0 -0.42130568484E-02  0.21930357739E-04  0.35437126914E-01  0.35690356065E-01  0.51109989000E-03 0. -1.
     -623    1    1    2    0    0  0.11421900997E-02  0.30993102282E-02  0.88999604756E-03  0.25126700233E+02  0.25126700000E+02 0. -1.
     -611    1    3    3    0    0  0.92816083086E-02  0.13331755486E-01  0.11634405281E+02  0.11634420920E+02  0.10000000000E-01 0. -1.
      611    1    3    3    0    0 -0.62107415598E-02 -0.16452996072E-01  0.32926758476E+00  0.32988849141E+00  0.10000000000E-01 0.  1.
</event>
<event>
 7   0  0.6206631E-02  0.9118800E+02  0.7818608E-02  0.1180000E+00
       11   -1    0    0    0    0  0.00000000000E+00  0.00000000000E+00  0.11999999989E+02  0.12000000000E+02  0.51109989000E-03 0. -1.
     -623   -1    0    0    0    0  0.00000000000E+00  0.00000000000E+00  0.42561509872E-11  0.25126700000E+02  0.25126700000E+02 0.  1.
      622    2    1    2    0    0 -0.52346132697E-02 -0.23876276342E-02  0.10370420780E+02  0.10370877255E+02  0.97132765045E-01 0.  0.
       11    1    1    2    0    0  0.41878520464E-02  0.36321874834E-02  0.16291131764E+01  0.16291226884E+01  0.51109989000E-03 0. -1.
     -623    1    1    2    0    0  0.10467612233E-02 -0.12445598492E-02  0.46603261124E-03  0.25126700057E+02  0.25126700000E+02 0.  1.
     -611    1    3    3    0    0  0.31221928465E-02 -0.91198073698E-02  0.10129949220E+02  0.10129958742E+02  0.10000000000E-01 0. -1.
      611    1    3    3    0    0 -0.83568061162E-02  0.67321797357E-02  0.24047156003E+00  0.24091851244E+00  0.10000000000E-01 0.  1.
</event>
<event>
 7   0  0.6206631E-02  0.9118800E+02  0.7818608E-02  0.1180000E+00
       11   -1    0    0    0    0  0.00000000000E+00  0.00000000000E+00  0.11999999989E+02  0.12000000000E+02  0.51109989000E-03 0.  1.
     -623   -1    0    0    0    0  0.00000000000E+00  0.00000000000E+00  0.42561509872E-11  0.25126700000E+02  0.25126700000E+02 0.  1.
      622    2    1    2    0    0 -0.22992992819E-03  0.69360861827E-03  0.11991103150E+02  0.11991456359E+02  0.92034410560E-01 0.  0.
       11    1    1    2    0    0 -0.21695639622E-02  0.58600379663E-03  0.82267550219E-02  0.85434846248E-02  0.51109989000E-03 0.  1.
     -623    1    1    2    0    0  0.23994938904E-02 -0.12796124149E-02  0.67008426314E-03  0.25126700156E+02  0.25126700000E+02 0.  1.
     -611    1    3    3    0    0  0.70422892239E-02  0.42182353134E-01  0.41184188298E+01  0.41186530083E+01  0.10000000000E-01 0. -1.
      611    1    3    3    0    0 -0.72722191521E-02 -0.41488744516E-01  0.78726843200E+01  0.78728033510E+01  0.10000000000E-01 0.  1.
</event>
<event>
 7   0  0.6206631E-02  0.9118800E+02  0.7818608E-02  0.1180000E+00
       11   -1    0    0    0    0  0.00000000000E+00  0.00000000000E+00  0.11999999989E+02  0.12000000000E+02  0.51109989000E-03 0. -1.
     -623   -1    0    0    0    0  0.00000000000E+00  0.00000000000E+00  0.42561509872E-11  0.25126700000E+02  0.25126700000E+02 0. -1.
      622    2    1    2    0    0 -0.13407499229E-02  0.13613286806E-01  0.11746662471E+02  0.11747016828E+02  0.90210928959E-01 0.  0.
       11    1    1    2    0    0 -0.34114260492E-02 -0.48118918001E-03  0.25295531178E+00  0.25297928839E+00  0.51109989000E-03 0. -1.
     -623    1    1    2    0    0  0.47521759721E-02 -0.13132097626E-01  0.38220586414E-03  0.25126703884E+02  0.25126700000E+02 0. -1.
     -611    1    3    3    0    0  0.30472152682E-02 -0.10472014155E-01  0.33802872431E+00  0.33835243026E+00  0.10000000000E-01 0. -1.
      611    1    3    3    0    0 -0.43879651911E-02  0.24085300961E-01  0.11408633747E+02  0.11408664397E+02  0.10000000000E-01 0. -1.
</event>
<event>
 7   0  0.6206631E-02  0.9118800E+02  0.7818608E-02  0.1180000E+00
       11   -1    0    0    0    0  0.00000000000E+00  0.00000000000E+00  0.11999999989E+02  0.12000000000E+02  0.51109989000E-03 0. -1.
     -623   -1    0    0    0    0  0.00000000000E+00  0.00000000000E+00  0.42561509872E-11  0.25126700000E+02  0.25126700000E+02 0. -1.
      622    2    1    2    0    0  0.15823575191E-01  0.38382760089E-02  0.11645267712E+02  0.11645587841E+02  0.84799606085E-01 0.  0.
       11    1    1    2    0    0 -0.15332497490E-01 -0.56381867861E-02  0.35403500730E+00  0.35441207972E+00  0.51109989000E-03 0. -1.
     -623    1    1    2    0    0 -0.49107770079E-03  0.17999107772E-02  0.69727002252E-03  0.25126700079E+02  0.25126700000E+02 0. -1.
     -611    1    3    3    0    0  0.34639671973E-01  0.28378277229E-01  0.90550262313E+01  0.90551424772E+01  0.10000000000E-01 0. -1.
      611    1    3    3    0    0 -0.18816096782E-01 -0.24540001220E-01  0.25902414805E+01  0.25904453641E+01  0.10000000000E-01 0.  1.
</event>
<event>
 7   0  0.6206631E-02  0.9118800E+02  0.7818608E-02  0.1180000E+00
       11   -1    0    0    0    0  0.00000000000E+00  0.00000000000E+00  0.11999999989E+02  0.12000000000E+02  0.51109989000E-03 0. -1.
     -623   -1    0    0    0    0  0.00000000000E+00  0.00000000000E+00  0.42561509872E-11  0.25126700000E+02  0.25126700000E+02 0. -1.
      622    2    1    2    0    0  0.98124224958E-02  0.31683155733E-02  0.11703960046E+02  0.11704392032E+02  0.10002882537E+00 0.  0.
       11    1    1    2    0    0 -0.91423039835E-02 -0.15145560938E-02  0.29546216730E+00  0.29560789762E+00  0.51109989000E-03 0. -1.
     -623    1    1    2    0    0 -0.67011851227E-03 -0.16537594795E-02  0.57777574941E-03  0.25126700070E+02  0.25126700000E+02 0. -1.
     -611    1    3    3    0    0  0.13096035452E-01 -0.18388574818E-01  0.75111904716E+00  0.75152476262E+00  0.10000000000E-01 0.  1.
      611    1    3    3    0    0 -0.32836129563E-02  0.21556890392E-01  0.10952840999E+02  0.10952867270E+02  0.10000000000E-01 0. -1.
</event>
<event>
 7   0  0.6206631E-02  0.9118800E+02  0.7818608E-02  0.1180000E+00
       11   -1    0    0    0    0  0.00000000000E+00  0.00000000000E+00  0.11999999989E+02  0.12000000000E+02  0.51109989000E-03 0.  1.
     -623   -1    0    0    0    0  0.00000000000E+00  0.00000000000E+00  0.42561509872E-11  0.25126700000E+02  0.25126700000E+02 0.  1.
      622    2    1    2    0    0  0.49428432576E-02 -0.23672579734E-02  0.11800067241E+02  0.11800606545E+02  0.11268497985E+00 0.  0.
       11    1    1    2    0    0 -0.32943021180E-02  0.21939142007E-02  0.19935345082E+00  0.19939339323E+00  0.51109989000E-03 0.  1.
     -623    1    1    2    0    0 -0.16485411397E-02  0.17334377275E-03  0.57929699005E-03  0.25126700061E+02  0.25126700000E+02 0.  1.
     -611    1    3    3    0    0 -0.15577137723E-01  0.93699437131E-02  0.11166873061E+02  0.11166892334E+02  0.10000000000E-01 0.  1.
      611    1    3    3    0    0  0.20519980981E-01 -0.11737201687E-01  0.63319418013E+00  0.63371421104E+00  0.10000000000E-01 0. -1.
</event>
<event>
 7   0  0.6206631E-02  0.9118800E+02  0.7818608E-02  0.1180000E+00
       11   -1    0    0    0    0  0.00000000000E+00  0.00000000000E+00  0.11999999989E+02  0.12000000000E+02  0.51109989000E-03 0. -1.
     -623   -1    0    0    0    0  0.00000000000E+00  0.00000000000E+00  0.42561509872E-11  0.25126700000E+02  0.25126700000E+02 0.  1.
      622    2    1    2    0    0 -0.35038976444E-01 -0.11469213124E-01  0.10737359583E+02  0.10737865129E+02  0.97454801203E-01 0.  0.
       11    1    1    2    0    0  0.38020854263E-01  0.25366524526E-01  0.12613028535E+01  0.12621308155E+01  0.51109989000E-03 0. -1.
     -623    1    1    2    0    0 -0.29818778180E-02 -0.13897311402E-01  0.13375527302E-02  0.25126704056E+02  0.25126700000E+02 0.  1.
     -611    1    3    3    0    0 -0.70426305328E-02 -0.49476921098E-01  0.71405709755E+01  0.71407528609E+01  0.10000000000E-01 0.  1.
      611    1    3    3    0    0 -0.27996345912E-01  0.38007707974E-01  0.35967886074E+01  0.35971122678E+01  0.10000000000E-01 0. -1.
</event>
<event>
 7   0  0.6206631E-02  0.9118800E+02  0.7818608E-02  0.1180000E+00
       11   -1    0    0    0    0  0.00000000000E+00  0.00000000000E+00  0.11999999989E+02  0.12000000000E+02  0.51109989000E-03 0.  1.
     -623   -1    0    0    0    0  0.00000000000E+00  0.00000000000E+00  0.42561509872E-11  0.25126700000E+02  0.25126700000E+02 0. -1.
      622    2    1    2    0    0 -0.16080615594E-03  0.14970459947E-01  0.11659253448E+02  0.11659637160E+02  0.93400242078E-01 0.  0.
       11    1    1    2    0    0 -0.72126070106E-03 -0.15945673083E-01  0.33998791947E+00  0.34036279367E+00  0.51109989000E-03 0.  1.
     -623    1    1    2    0    0  0.88206685700E-03  0.97521313592E-03  0.75862150642E-03  0.25126700046E+02  0.25126700000E+02 0. -1.
     -611    1    3    3    0    0 -0.33477296068E-01  0.37002752063E-01  0.50813042477E+01  0.50815590906E+01  0.10000000000E-01 0.  1.
      611    1    3    3    0    0  0.33316489912E-01 -0.22032292116E-01  0.65779492004E+01  0.65780780699E+01  0.10000000000E-01 0. -1.
</event>
<event>
 7   0  0.6206631E-02  0.9118800E+02  0.7818608E-02  0.1180000E+00
       11   -1    0    0    0    0  0.00000000000E+00  0.00000000000E+00  0.11999999989E+02  0.12000000000E+02  0.51109989000E-03 0.  1.
     -623   -1    0    0    0    0  0.00000000000E+00  0.00000000000E+00  0.42561509872E-11  0.25126700000E+02  0.25126700000E+02 0. -1.
      622    2    1    2    0    0 -0.38939025217E-01 -0.17428045415E-01  0.76963933002E+01  0.76969869675E+01  0.85548589735E-01 0.  0.
       11    1    1    2    0    0  0.49242098391E-01  0.73385935343E-03  0.43027235019E+01  0.43030053588E+01  0.51109989000E-03 0.  1.
     -623    1    1    2    0    0 -0.10303073173E-01  0.16694186062E-01  0.88318695362E-03  0.25126707674E+02  0.25126700000E+02 0. -1.
     -611    1    3    3    0    0  0.64485210320E-02 -0.31417461932E-01  0.52766348000E+01  0.52767417459E+01  0.10000000000E-01 0.  1.
      611    1    3    3    0    0 -0.45387546249E-01  0.13989416517E-01  0.24197585002E+01  0.24202452216E+01  0.10000000000E-01 0. -1.
</event>
<event>
 7   0  0.6206631E-02  0.9118800E+02  0.7818608E-02  0.1180000E+00
       11   -1    0    0    0    0  0.00000000000E+00  0.00000000000E+00  0.11999999989E+02  0.12000000000E+02  0.51109989000E-03 0.  1.
     -623   -1    0    0    0    0  0.00000000000E+00  0.00000000000E+00  0.42561509872E-11  0.25126700000E+02  0.25126700000E+02 0.  1.
      622    2    1    2    0    0 -0.53064613183E-02 -0.23442354354E-02  0.11825341739E+02  0.11825760637E+02  0.99366746753E-01 0.  0.
       11    1    1    2    0    0  0.29462526401E-02  0.85614311278E-03  0.17421143945E+00  0.17423920410E+00  0.51109989000E-03 0.  1.
     -623    1    1    2    0    0  0.23602086782E-02  0.14880923226E-02  0.44681085864E-03  0.25126700159E+02  0.25126700000E+02 0.  1.
     -611    1    3    3    0    0 -0.27523213336E-01 -0.32081936443E-01  0.27989362901E+01  0.27992733225E+01  0.10000000000E-01 0. -1.
      611    1    3    3    0    0  0.22216752018E-01  0.29737701008E-01  0.90264054487E+01  0.90264873146E+01  0.10000000000E-01 0.  1.
</event>
<event>
 7   0  0.6206631E-02  0.9118800E+02  0.7818608E-02  0.1180000E+00
       11   -1    0    0    0    0  0.00000000000E+00  0.00000000000E+00  0.11999999989E+02  0.12000000000E+02  0.51109989000E-03 0.  1.
     -623   -1    0    0    0    0  0.00000000000E+00  0.00000000000E+00  0.42561509872E-11  0.25126700000E+02  0.25126700000E+02 0. -1.
      622    2    1    2    0    0 -0.19036613260E-04  0.57570137432E-01  0.94116681867E+01  0.94122302021E+01  0.85234967338E-01 0.  0.
       11    1    1    2    0    0  0.10895728518E-01 -0.63655459971E-01  0.25869606375E+01  0.25877666695E+01  0.51109989000E-03 0.  1.
     -623    1    1    2    0    0 -0.10876691905E-01  0.60853225388E-02  0.13711649182E-02  0.25126703128E+02  0.25126700000E+02 0. -1.
     -611    1    3    3    0    0  0.58958409451E-02  0.20772970353E-01  0.59260316383E+00  0.59308075927E+00  0.10000000000E-01 0.  1.
      611    1    3    3    0    0 -0.59148775584E-02  0.36797167079E-01  0.88190650229E+01  0.88191494428E+01  0.10000000000E-01 0.  1.
</event>
<event>
 7   0  0.6206631E-02  0.9118800E+02  0.7818608E-02  0.1180000E+00
       11   -1    0    0    0    0  0.00000000000E+00  0.00000000000E+00  0.11999999989E+02  0.12000000000E+02  0.51109989000E-03 0.  1.
     -623   -1    0    0    0    0  0.00000000000E+00  0.00000000000E+00  0.42561509872E-11  0.25126700000E+02  0.25126700000E+02 0. -1.
      622    2    1    2    0    0 -0.24489744086E-02 -0.24131341077E-01  0.11526285977E+02  0.11526783595E+02  0.10432307899E+00 0.  0.
       11    1    1    2    0    0  0.21691553981E-02  0.25625746582E-01  0.47251671967E+00  0.47321633078E+00  0.51109989000E-03 0.  1.
     -623    1    1    2    0    0  0.27981901048E-03 -0.14944055052E-02  0.11972928168E-02  0.25126700075E+02  0.25126700000E+02 0. -1.
     -611    1    3    3    0    0 -0.38067054528E-01 -0.19317237892E-01  0.97840237429E+01  0.97841219769E+01  0.10000000000E-01 0.  1.
      611    1    3    3    0    0  0.35618080120E-01 -0.48141031848E-02  0.17422622338E+01  0.17426616179E+01  0.10000000000E-01 0. -1.
</event>
<event>
 7   0  0.6206631E-02  0.9118800E+02  0.7818608E-02  0.1180000E+00
       11   -1    0    0    0    0  0.00000000000E+00  0.00000000000E+00  0.11999999989E+02  0.12000000000E+02  0.51109989000E-03 0.  1.
     -623   -1    0    0    0    0  0.00000000000E+00  0.00000000000E+00  0.42561509872E-11  0.25126700000E+02  0.25126700000E+02 0. -1.
      622    2    1    2    0    0  0.36327948112E-02  0.19644111092E-01  0.93543875907E+01  0.93548291327E+01  0.88666886902E-01 0.  0.
       11    1    1    2    0    0 -0.28880758970E-02 -0.20299588418E-01  0.26450913235E+01  0.26451708423E+01  0.51109989000E-03 0.  1.
     -623    1    1    2    0    0 -0.74471891416E-03  0.65547732545E-03  0.52107495456E-03  0.25126700025E+02  0.25126700000E+02 0. -1.
     -611    1    3    3    0    0  0.40577357779E-01  0.34196778932E-02  0.65413813369E+01  0.65415157273E+01  0.10000000000E-01 0.  1.
      611    1    3    3    0    0 -0.36944562968E-01  0.16224433199E-01  0.28130062538E+01  0.28133134054E+01  0.10000000000E-01 0. -1.
</event>
<event>
 7   0  0.6206631E-02  0.9118800E+02  0.7818608E-02  0.1180000E+00
       11   -1    0    0    0    0  0.00000000000E+00  0.00000000000E+00  0.11999999989E+02  0.12000000000E+02  0.51109989000E-03 0. -1.
     -623   -1    0    0    0    0  0.00000000000E+00  0.00000000000E+00  0.42561509872E-11  0.25126700000E+02  0.25126700000E+02 0. -1.
      622    2    1    2    0    0 -0.56174623137E-01 -0.12835876169E+00  0.49931248250E+01  0.49963256486E+01  0.11109864414E+00 0.  0.
       11    1    1    2    0    0  0.62826529864E-01  0.10181798965E+00  0.70026371032E+01  0.70036590963E+01  0.51109989000E-03 0. -1.
     -623    1    1    2    0    0 -0.66519067263E-02  0.26540772034E-01  0.42380608536E-02  0.25126715255E+02  0.25126700000E+02 0. -1.
     -611    1    3    3    0    0 -0.74407560008E-01 -0.10773552357E+00  0.46780249895E+01  0.46798676509E+01  0.10000000000E-01 0. -1.
      611    1    3    3    0    0  0.18232936870E-01 -0.20623238118E-01  0.31509983553E+00  0.31645799767E+00  0.10000000000E-01 0.  1.
</event>
<event>
 7   0  0.6206631E-02  0.9118800E+02  0.7818608E-02  0.1180000E+00
       11   -1    0    0    0    0  0.00000000000E+00  0.00000000000E+00  0.11999999989E+02  0.12000000000E+02  0.51109989000E-03 0. -1.
     -623   -1    0    0    0    0  0.00000000000E+00  0.00000000000E+00  0.42561509872E-11  0.25126700000E+02  0.25126700000E+02 0.  1.
      622    2    1    2    0    0  0.50625036225E-02  0.48391568165E-03  0.11982063799E+02  0.11982455636E+02  0.96769473450E-01 0.  0.
       11    1    1    2    0    0 -0.30121418559E-02  0.13505204587E-02  0.17223267177E-01  0.17544203015E-01  0.51109989000E-03 0. -1.
     -623    1    1    2    0    0 -0.20503617666E-02 -0.18344361404E-02  0.71292305533E-03  0.25126700161E+02  0.25126700000E+02 0.  1.
     -611    1    3    3    0    0  0.37609575995E-01 -0.11678975907E-01  0.25595863889E+01  0.25599088580E+01  0.10000000000E-01 0.  1.
      611    1    3    3    0    0 -0.32547072373E-01  0.12162891589E-01  0.94224774099E+01  0.94225467783E+01  0.10000000000E-01 0. -1.
</event>
<event>
 7   0  0.6206631E-02  0.9118800E+02  0.7818608E-02  0.1180000E+00
       11   -1    0    0    0    0  0.00000000000E+00  0.00000000000E+00  0.11999999989E+02  0.12000000000E+02  0.51109989000E-03 0.  1.
     -623   -1    0    0    0    0  0.00000000000E+00  0.00000000000E+00  0.42561509872E-11  0.25126700000E+02  0.25126700000E+02 0. -1.
      622    2    1    2    0    0  0.59746003429E-02 -0.14910005432E-01  0.11762905563E+02  0.11763172057E+02  0.77534161589E-01 0.  0.
       11    1    1    2    0    0 -0.41153889037E-01  0.24190123357E-01  0.23193896306E+00  0.23680107360E+00  0.51109989000E-03 0.  1.
     -623    1    1    2    0    0  0.35179288694E-01 -0.92801179257E-02  0.51554627598E-02  0.25126726869E+02  0.25126700000E+02 0. -1.
     -611    1    3    3    0    0  0.23975954477E-01 -0.15239642828E-01  0.18503421447E+01  0.18505872434E+01  0.10000000000E-01 0. -1.
      611    1    3    3    0    0 -0.18001354134E-01  0.32963739619E-03  0.99125634186E+01  0.99125848135E+01  0.10000000000E-01 0.  1.
</event>
<event>
 7   0  0.6206631E-02  0.9118800E+02  0.7818608E-02  0.1180000E+00
       11   -1    0    0    0    0  0.00000000000E+00  0.00000000000E+00  0.11999999989E+02  0.12000000000E+02  0.51109989000E-03 0.  1.
     -623   -1    0    0    0    0  0.00000000000E+00  0.00000000000E+00  0.42561509872E-11  0.25126700000E+02  0.25126700000E+02 0. -1.
      622    2    1    2    0    0  0.40635346272E-01 -0.52966275665E-02  0.11691334397E+02  0.11691639514E+02  0.73859635057E-01 0.  0.
       11    1    1    2    0    0 -0.93484348987E-01  0.27542053470E-01  0.29247988032E+00  0.30828984711E+00  0.51109989000E-03 0.  1.
     -623    1    1    2    0    0  0.52849002715E-01 -0.22245425904E-01  0.16185711383E-01  0.25126770639E+02  0.25126700000E+02 0. -1.
     -611    1    3    3    0    0  0.60834421139E-01 -0.21877254279E-02  0.86637810065E+01  0.86640006314E+01  0.10000000000E-01 0.  1.
      611    1    3    3    0    0 -0.20199074867E-01 -0.31089021385E-02  0.30275533909E+01  0.30276388825E+01  0.10000000000E-01 0. -1.
</event>
<event>
 7   0  0.6206631E-02  0.9118800E+02  0.7818608E-02  0.1180000E+00
       11   -1    0    0    0    0  0.00000000000E+00  0.00000000000E+00  0.11999999989E+02  0.12000000000E+02  0.51109989000E-03 0.  1.
     -623   -1    0    0    0    0  0.00000000000E+00  0.00000000000E+00  0.42561509872E-11  0.25126700000E+02  0.25126700000E+02 0.  1.
      622    2    1    2    0    0  0.13464640270E-01  0.11663873059E-01  0.11943321703E+02  0.11943796977E+02  0.10505041259E+00 0.  0.
       11    1    1    2    0    0 -0.22650805969E-02  0.19025258939E-02  0.56116623750E-01  0.56196858267E-01  0.51109989000E-03 0.  1.
     -623    1    1    2    0    0 -0.11199559673E-01 -0.13566398953E-01  0.56166246841E-03  0.25126706165E+02  0.25126700000E+02 0.  1.
     -611    1    3    3    0    0  0.43951979552E-01 -0.13649407625E-01  0.28956890468E+01  0.28960720189E+01  0.10000000000E-01 0. -1.
      611    1    3    3    0    0 -0.30487339283E-01  0.25313280684E-01  0.90476326561E+01  0.90477249582E+01  0.10000000000E-01 0.  1.
</event>
<event>
 7   0  0.6206631E-02  0.9118800E+02  0.7818608E-02  0.1180000E+00
       11   -1    0    0    0    0  0.00000000000E+00  0.00000000000E+00  0.11999999989E+02  0.12000000000E+02  0.51109989000E-03 0. -1.
     -623   -1    0    0    0    0  0.00000000000E+00  0.00000000000E+00  0.42561509872E-11  0.25126700000E+02  0.25126700000E+02 0. -1.
      622    2    1    2    0    0  0.90089744456E-02 -0.26399808656E-01  0.63383859104E+01  0.63394622514E+01  0.11343533529E+00 0.  0.
       11    1    1    2    0    0 -0.22256606222E-01  0.12427500519E-01  0.56604729249E+01  0.56605303456E+01  0.51109989000E-03 0. -1.
     -623    1    1    2    0    0  0.13247631777E-01  0.13972308137E-01  0.11411538234E-02  0.25126707403E+02  0.25126700000E+02 0. -1.
     -611    1    3    3    0    0  0.21914618073E-01 -0.62052111540E-01  0.51487444800E+01  0.51491747334E+01  0.10000000000E-01 0. -1.
      611    1    3    3    0    0 -0.12905643627E-01  0.35652302885E-01  0.11896414305E+01  0.11902875180E+01  0.10000000000E-01 0.  1.
</event>
<event>
 7   0  0.6206631E-02  0.9118800E+02  0.7818608E-02  0.1180000E+00
       11   -1    0    0    0    0  0.00000000000E+00  0.00000000000E+00  0.11999999989E+02  0.12000000000E+02  0.51109989000E-03 0. -1.
     -623   -1    0    0    0    0  0.00000000000E+00  0.00000000000E+00  0.42561509872E-11  0.25126700000E+02  0.25126700000E+02 0.  1.
      622    2    1    2    0    0  0.24474853600E-02 -0.25658203483E-02  0.11980984475E+02  0.11981710109E+02  0.13181645938E+00 0.  0.
       11    1    1    2    0    0 -0.23570971714E-03  0.62476552306E-02  0.17180053695E-01  0.18289456609E-01  0.51109989000E-03 0. -1.
     -623    1    1    2    0    0 -0.22117756429E-02 -0.36818348822E-02  0.18354604466E-02  0.25126700434E+02  0.25126700000E+02 0.  1.
     -611    1    3    3    0    0  0.49243226161E-01  0.22394278407E-01  0.94021256446E+01  0.94022865855E+01  0.10000000000E-01 0. -1.
      611    1    3    3    0    0 -0.46795740801E-01 -0.24960098755E-01  0.25788588304E+01  0.25794235237E+01  0.10000000000E-01 0.  1.
</event>
<event>
 7   0  0.6206631E-02  0.9118800E+02  0.7818608E-02  0.1180000E+00
       11   -1    0    0    0    0  0.00000000000E+00  0.00000000000E+00  0.11999999989E+02  0.12000000000E+02  0.51109989000E-03 0.  1.
     -623   -1    0    0    0    0  0.00000000000E+00  0.00000000000E+00  0.42561509872E-11  0.25126700000E+02  0.25126700000E+02 0. -1.
      622    2    1    2    0    0 -0.26617267275E-02  0.41870182251E-02  0.11780973445E+02  0.11781338524E+02  0.92614714772E-01 0.  0.
       11    1    1    2    0    0 -0.23587386656E-02 -0.14786100160E-02  0.21864250608E+00  0.21866082554E+00  0.51109989000E-03 0.  1.
     -623    1    1    2    0    0  0.50204653931E-02 -0.27084082091E-02  0.38403787006E-03  0.25126700650E+02  0.25126700000E+02 0. -1.
     -611    1    3    3    0    0  0.24671433489E-01  0.15164966077E-01  0.14750930379E+01  0.14754111719E+01  0.10000000000E-01 0. -1.
      611    1    3    3    0    0 -0.27333160216E-01 -0.10977947852E-01  0.10305880407E+02  0.10305927352E+02  0.10000000000E-01 0.  1.
</event>
<event>
 7   0  0.6206631E-02  0.9118800E+02  0.7818608E-02  0.1180000E+00
       11   -1    0    0    0    0  0.00000000000E+00  0.00000000000E+00  0.11999999989E+02  0.12000000000E+02  0.51109989000E-03 0. -1.
     -623   -1    0    0    0    0  0.00000000000E+00  0.00000000000E+00  0.42561509872E-11  0.25126700000E+02  0.25126700000E+02 0. -1.
      622    2    1    2    0    0 -0.62732827156E-01  0.49143112987E-01  0.80503462860E+01  0.80520608685E+01  0.14580278430E+00 0.  0.
       11    1    1    2    0    0  0.43259786659E-01 -0.60084051091E-01  0.39472347682E+01  0.39479290873E+01  0.51109989000E-03 0. -1.
     -623    1    1    2    0    0  0.19473040497E-01  0.10940938103E-01  0.24189349428E-02  0.25126710044E+02  0.25126700000E+02 0. -1.
     -611    1    3    3    0    0 -0.99662623866E-01  0.69588205957E-01  0.62705611520E+01  0.62717471503E+01  0.10000000000E-01 0. -1.
      611    1    3    3    0    0  0.36929796710E-01 -0.20445092969E-01  0.17797851340E+01  0.17803137181E+01  0.10000000000E-01 0.  1.
</event>
<event>
 7   0  0.6206631E-02  0.9118800E+02  0.7818608E-02  0.1180000E+00
       11   -1    0    0    0    0  0.00000000000E+00  0.00000000000E+00  0.11999999989E+02  0.12000000000E+02  0.51109989000E-03 0.  1.
     -623   -1    0    0    0    0  0.00000000000E+00  0.00000000000E+00  0.42561509872E-11  0.25126700000E+02  0.25126700000E+02 0.  1.
      622    2    1    2    0    0  0.21333199820E-01 -0.23721267358E-01  0.10844970086E+02  0.10846348781E+02  0.16996440954E+00 0.  0.
       11    1    1    2    0    0 -0.24302259299E-01  0.29558204779E-01  0.11530153648E+01  0.11536502849E+01  0.51109989000E-03 0.  1.
     -623    1    1    2    0    0  0.29690594795E-02 -0.58369374216E-02  0.20145380179E-02  0.25126700934E+02  0.25126700000E+02 0.  1.
     -611    1    3    3    0    0  0.24428709194E-01 -0.16628395947E-01  0.10785688674E+02  0.10785733792E+02  0.10000000000E-01 0.  1.
      611    1    3    3    0    0 -0.30955093744E-02 -0.70928714108E-02  0.59281412314E-01  0.60614988651E-01  0.10000000000E-01 0.  1.
</event>
<event>
 7   0  0.6206631E-02  0.9118800E+02  0.7818608E-02  0.1180000E+00
       11   -1    0    0    0    0  0.00000000000E+00  0.00000000000E+00  0.11999999989E+02  0.12000000000E+02  0.51109989000E-03 0. -1.
     -623   -1    0    0    0    0  0.00000000000E+00  0.00000000000E+00  0.42561509872E-11  0.25126700000E+02  0.25126700000E+02 0.  1.
      622    2    1    2    0    0  0.12081063586E-01  0.25261611677E-01  0.11157401355E+02  0.11157893353E+02  0.10097020414E+00 0.  0.
       11    1    1    2    0    0  0.23828788420E-01 -0.23647926485E-01  0.84141128865E+00  0.84208090673E+00  0.51109989000E-03 0. -1.
     -623    1    1    2    0    0 -0.35909852006E-01 -0.16136851916E-02  0.11873454871E-02  0.25126725740E+02  0.25126700000E+02 0.  1.
     -611    1    3    3    0    0  0.46113834060E-01 -0.16466790232E-01  0.54720474030E+01  0.54722756164E+01  0.10000000000E-01 0.  1.
      611    1    3    3    0    0 -0.34032770474E-01  0.41728401909E-01  0.56853539520E+01  0.56856177368E+01  0.10000000000E-01 0. -1.
</event>
<event>
 7   0  0.6206631E-02  0.9118800E+02  0.7818608E-02  0.1180000E+00
       11   -1    0    0    0    0  0.00000000000E+00  0.00000000000E+00  0.11999999989E+02  0.12000000000E+02  0.51109989000E-03 0. -1.
     -623   -1    0    0    0    0  0.00000000000E+00  0.00000000000E+00  0.42561509872E-11  0.25126700000E+02  0.25126700000E+02 0. -1.
      622    2    1    2    0    0  0.16021725740E-02  0.71566280647E-03  0.11967079624E+02  0.11967623343E+02  0.11406433137E+00 0.  0.
       11    1    1    2    0    0 -0.16884877355E-02  0.46808313784E-03  0.32325134456E-01  0.32376621711E-01  0.51109989000E-03 0. -1.
     -623    1    1    2    0    0  0.86315161529E-04 -0.11837459443E-02  0.59523037595E-03  0.25126700035E+02  0.25126700000E+02 0. -1.
     -611    1    3    3    0    0  0.32612991483E-03  0.39233043113E-02  0.10687198335E+00  0.10741098408E+00  0.10000000000E-01 0. -1.
      611    1    3    3    0    0  0.12760426592E-02 -0.32076415048E-02  0.11860207641E+02  0.11860212359E+02  0.10000000000E-01 0. -1.
</event>
<event>
 7   0  0.6206631E-02  0.9118800E+02  0.7818608E-02  0.1180000E+00
       11   -1    0    0    0    0  0.00000000000E+00  0.00000000000E+00  0.11999999989E+02  0.12000000000E+02  0.51109989000E-03 0.  1.
     -623   -1    0    0    0    0  0.00000000000E+00  0.00000000000E+00  0.42561509872E-11  0.25126700000E+02  0.25126700000E+02 0. -1.
      622    2    1    2    0    0  0.40174062438E-02 -0.54743104108E-01  0.11278082793E+02  0.11279009572E+02  0.13376289715E+00 0.  0.
       11    1    1    2    0    0  0.20600308391E-01  0.63953083737E-01  0.71783860662E+00  0.72097634913E+00  0.51109989000E-03 0.  1.
     -623    1    1    2    0    0 -0.24617714635E-01 -0.92099796287E-02  0.40785899780E-02  0.25126714078E+02  0.25126700000E+02 0. -1.
     -611    1    3    3    0    0 -0.30842702146E-01 -0.22695821328E-01  0.98968822694E+01  0.98969614038E+01  0.10000000000E-01 0.  1.
      611    1    3    3    0    0  0.34860108390E-01 -0.32047282780E-01  0.13812005231E+01  0.13820481687E+01  0.10000000000E-01 0. -1.
</event>
<event>
 7   0  0.6206631E-02  0.9118800E+02  0.7818608E-02  0.1180000E+00
       11   -1    0    0    0    0  0.00000000000E+00  0.00000000000E+00  0.11999999989E+02  0.12000000000E+02  0.51109989000E-03 0. -1.
     -623   -1    0    0    0    0  0.00000000000E+00  0.00000000000E+00  0.42561509872E-11  0.25126700000E+02  0.25126700000E+02 0.  1.
      622    2    1    2    0    0  0.13039138494E+00  0.90196067573E-01  0.74786206842E+01  0.74808761389E+01  0.92753568131E-01 0.  0.
       11    1    1    2    0    0 -0.15628037343E+00 -0.12686112932E+00  0.45145976912E+01  0.45190828578E+01  0.51109989000E-03 0. -1.
     -623    1    1    2    0    0  0.25888988485E-01  0.36665061750E-01  0.67816137963E-02  0.25126741003E+02  0.25126700000E+02 0.  1.
     -611    1    3    3    0    0  0.39547156836E-02  0.42008809521E-01  0.11849351823E+01  0.11857283695E+01  0.10000000000E-01 0.  1.
      611    1    3    3    0    0  0.12643666926E+00  0.48187258052E-01  0.62936855019E+01  0.62951477695E+01  0.10000000000E-01 0. -1.
</event>
<event>
 7   0  0.6206631E-02  0.9118800E+02  0.7818608E-02  0.1180000E+00
       11   -1    0    0    0    0  0.00000000000E+00  0.00000000000E+00  0.11999999989E+02  0.12000000000E+02  0.51109989000E-03 0.  1.
     -623   -1    0    0    0    0  0.00000000000E+00  0.00000000000E+00  0.42561509872E-11  0.25126700000E+02  0.25126700000E+02 0. -1.
      622    2    1    2    0    0 -0.58740312193E-01 -0.90412977601E-02  0.94882586881E+01  0.94898460577E+01  0.16307390212E+00 0.  0.
       11    1    1    2    0    0  0.38038146877E-01  0.38338917319E-01  0.25095471176E+01  0.25101282377E+01  0.51109989000E-03 0.  1.
     -623    1    1    2    0    0  0.20702165316E-01 -0.29297619559E-01  0.21941834819E-02  0.25126725705E+02  0.25126700000E+02 0. -1.
     -611    1    3    3    0    0 -0.68049879706E-01 -0.36943900570E-01  0.91035917580E+01  0.91039265449E+01  0.10000000000E-01 0.  1.
      611    1    3    3    0    0  0.93095675135E-02  0.27902602810E-01  0.38466693005E+00  0.38591951281E+00  0.10000000000E-01 0. -1.
</event>
<event>
 7   0  0.6206631E-02  0.9118800E+02  0.7818608E-02  0.1180000E+00
       11   -1    0    0    0    0  0.00000000000E+00  0.00000000000E+00  0.11999999989E+02  0.12000000000E+02  0.51109989000E-03 0. -1.
     -623   -1    0    0    0    0  0.00000000000E+00  0.00000000000E+00  0.42561509872E-11  0.25126700000E+02  0.25126700000E+02 0.  1.
      622    2    1    2    0    0 -0.34543664191E-02  0.26177114548E-02  0.11952899288E+02  0.11953353512E+02  0.10411536528E+00 0.  0.
       11    1    1    2    0    0  0.28634194931E-02 -0.39240278591E-02  0.46389995364E-01  0.46646436722E-01  0.51109989000E-03 0. -1.
     -623    1    1    2    0    0  0.59094692605E-03  0.13063164043E-02  0.71070545914E-03  0.25126700051E+02  0.25126700000E+02 0.  1.
     -611    1    3    3    0    0  0.31639670218E-01  0.25986100591E-01  0.93388006157E+01  0.93388957209E+01  0.10000000000E-01 0. -1.
      611    1    3    3    0    0 -0.35094036637E-01 -0.23368389137E-01  0.26140986726E+01  0.26144577914E+01  0.10000000000E-01 0. -1.
</event>
<event>
 7   0  0.6206631E-02  0.9118800E+02  0.7818608E-02  0.1180000E+00
       11   -1    0    0    0    0  0.00000000000E+00  0.00000000000E+00  0.11999999989E+02  0.12000000000E+02  0.51109989000E-03 0. -1.
     -623   -1    0    0    0    0  0.00000000000E+00  0.00000000000E+00  0.42561509872E-11  0.25126700000E+02  0.25126700000E+02 0.  1.
      622    2    1    2    0    0 -0.38635670215E-02  0.13791209662E-01  0.11973902938E+02  0.11974286537E+02  0.94770141312E-01 0.  0.
       11    1    1    2    0    0  0.93299365879E-02  0.10932627386E-01  0.21299563410E-01  0.25700246747E-01  0.51109989000E-03 0. -1.
     -623    1    1    2    0    0 -0.54663695664E-02 -0.24723837047E-01  0.47974878930E-02  0.25126713216E+02  0.25126700000E+02 0.  1.
     -611    1    3    3    0    0  0.17995103130E-02  0.27155349101E-01  0.11380955492E+01  0.11384648129E+01  0.10000000000E-01 0.  1.
      611    1    3    3    0    0 -0.56630773345E-02 -0.13364139439E-01  0.10835807389E+02  0.10835821724E+02  0.10000000000E-01 0. -1.
</event>
<event>
 7   0  0.6206631E-02  0.9118800E+02  0.7818608E-02  0.1180000E+00
       11   -1    0    0    0    0  0.00000000000E+00  0.00000000000E+00  0.11999999989E+02  0.12000000000E+02  0.51109989000E-03 0. -1.
     -623   -1    0    0    0    0  0.00000000000E+00  0.00000000000E+00  0.42561509872E-11  0.25126700000E+02  0.25126700000E+02 0. -1.
      622    2    1    2    0    0  0.15882800410E-01 -0.17575707801E-01  0.37618789971E+01  0.37634880352E+01  0.10745898523E+00 0.  0.
       11    1    1    2    0    0 -0.16814412916E-01 -0.80444206231E-02  0.82364777250E+01  0.82364988322E+01  0.51109989000E-03 0. -1.
     -623    1    1    2    0    0  0.93161250651E-03  0.25620128424E-01  0.16432670563E-02  0.25126713133E+02  0.25126700000E+02 0. -1.
     -611    1    3    3    0    0 -0.18463544643E-01  0.27542013313E-01  0.25565370729E+01  0.25567716500E+01  0.10000000000E-01 0. -1.
      611    1    3    3    0    0  0.34346345053E-01 -0.45117721113E-01  0.12053419241E+01  0.12067163852E+01  0.10000000000E-01 0.  1.
</event>
<event>
 7   0  0.6206631E-02  0.9118800E+02  0.7818608E-02  0.1180000E+00
       11   -1    0    0    0    0  0.00000000000E+00  0.00000000000E+00  0.11999999989E+02  0.12000000000E+02  0.51109989000E-03 0.  1.
     -623   -1    0    0    0    0  0.00000000000E+00  0.00000000000E+00  0.42561509872E-11  0.25126700000E+02  0.25126700000E+02 0.  1.
      622    2    1    2    0    0  0.62995688301E-01 -0.88256910445E-01  0.71482350616E+01  0.71493856107E+01  0.68500914146E-01 0.  0.
       11    1    1    2    0    0  0.10111977726E+00 -0.41852128708E-01  0.48485063990E+01  0.48497413717E+01  0.51109989000E-03 0.  1.
     -623    1    1    2    0    0 -0.16411546556E+00  0.13010903915E+00  0.32585285216E-02  0.25127573018E+02  0.25126700000E+02 0.  1.
     -611    1    3    3    0    0  0.33311179657E-01 -0.67937370519E-01  0.29589142015E+01  0.29598983721E+01  0.10000000000E-01 0. -1.
      611    1    3    3    0    0  0.29684508644E-01 -0.20319539925E-01  0.41893208601E+01  0.41894872386E+01  0.10000000000E-01 0.  1.
</event>
<event>
 7   0  0.6206631E-02  0.9118800E+02  0.7818608E-02  0.1180000E+00
       11   -1    0    0    0    0  0.00000000000E+00  0.00000000000E+00  0.11999999989E+02  0.12000000000E+02  0.51109989000E-03 0. -1.
     -623   -1    0    0    0    0  0.00000000000E+00  0.00000000000E+00  0.42561509872E-11  0.25126700000E+02  0.25126700000E+02 0. -1.
      622    2    1    2    0    0 -0.22912911699E-02  0.13931694291E-01  0.11841232870E+02  0.11841780293E+02  0.11298356956E+00 0.  0.
       11    1    1    2    0    0 -0.17881003313E-02 -0.14262585281E-01  0.15756421264E+00  0.15821934448E+00  0.51109989000E-03 0. -1.
     -623    1    1    2    0    0  0.40793915012E-02  0.33089099029E-03  0.12029062158E-02  0.25126700362E+02  0.25126700000E+02 0. -1.
     -611    1    3    3    0    0  0.79332674754E-02  0.64322142352E-02  0.19023734260E+00  0.19077357425E+00  0.10000000000E-01 0. -1.
      611    1    3    3    0    0 -0.10224558645E-01  0.74994800555E-02  0.11650995528E+02  0.11651006719E+02  0.10000000000E-01 0. -1.
</event>
<event>
 7   0  0.6206631E-02  0.9118800E+02  0.7818608E-02  0.1180000E+00
       11   -1    0    0    0    0  0.00000000000E+00  0.00000000000E+00  0.11999999989E+02  0.12000000000E+02  0.51109989000E-03 0.  1.
     -623   -1    0    0    0    0  0.00000000000E+00  0.00000000000E+00  0.42561509872E-11  0.25126700000E+02  0.25126700000E+02 0. -1.
      622    2    1    2    0    0  0.16621822883E-01  0.18799503075E-01  0.11149976549E+02  0.11150486884E+02  0.10368700946E+00 0.  0.
       11    1    1    2    0    0  0.58335848572E-01 -0.70691451185E-02  0.84736319789E+00  0.84939843089E+00  0.51109989000E-03 0.  1.
     -623    1    1    2    0    0 -0.74957671455E-01 -0.11730357956E-01  0.26602420356E-02  0.25126814685E+02  0.25126700000E+02 0. -1.
     -611    1    3    3    0    0  0.15236244417E-01  0.15333852478E-01  0.56145134742E+00  0.56195630230E+00  0.10000000000E-01 0.  1.
      611    1    3    3    0    0  0.13855784658E-02  0.34656505967E-02  0.10588525202E+02  0.10588530582E+02  0.10000000000E-01 0.  1.
</event>
<event>
 7   0  0.6206631E-02  0.9118800E+02  0.7818608E-02  0.1180000E+00
       11   -1    0    0    0    0  0.00000000000E+00  0.00000000000E+00  0.11999999989E+02  0.12000000000E+02  0.51109989000E-03 0.  1.
     -623   -1    0    0    0    0  0.00000000000E+00  0.00000000000E+00  0.42561509872E-11  0.25126700000E+02  0.25126700000E+02 0.  1.
      622    2    1    2    0    0  0.11688699420E-01 -0.10197495084E-01  0.96848724161E+01  0.96850762855E+01  0.60896017785E-01 0.  0.
       11    1    1    2    0    0 -0.21606801494E-01 -0.97723977782E-02  0.23147922963E+01  0.23149138191E+01  0.51109989000E-03 0.  1.
     -623    1    1    2    0    0  0.99181020738E-02  0.19969892862E-01  0.33527671184E-03  0.25126709895E+02  0.25126700000E+02 0.  1.
     -611    1    3    3    0    0 -0.17708955410E-01 -0.21007111975E-01  0.52959214227E+01  0.52960021357E+01  0.10000000000E-01 0.  1.
      611    1    3    3    0    0  0.29397654830E-01  0.10809616891E-01  0.43889509934E+01  0.43890741498E+01  0.10000000000E-01 0. -1.
</event>
<event>
 6   0  0.6206631E-02  0.9118800E+02  0.7818608E-02  0.1180000E+00
       11   -1    0    0    0    0  0.00000000000E+00  0.00000000000E+00  0.11999999989E+02  0.12000000000E+02  0.51109989000E-03 0.  1.
     -623   -1    0    0    0    0  0.00000000000E+00  0.00000000000E+00  0.42561509872E-11  0.25126700000E+02  0.25126700000E+02 0. -1.
       11    1    1    2    0    0 -0.49790056931E-01 -0.84679030763E-01  0.37188082487E+00  0.38463644803E+00  0.51109989000E-03 0.  1.
     -623    1    1    2    0    0  0.40243160906E-01 -0.20757866595E-01  0.18333429910E-01  0.25126747490E+02  0.25126700000E+02 0. -1.
     -611    1    1    2    0    0 -0.38857810431E-01 -0.10469676048E+00  0.65075405545E+01  0.65085063885E+01  0.10000000000E-01 0. -1.
      611    1    1    2    0    0  0.48404706456E-01  0.21013365784E+00  0.51022451799E+01  0.51068096739E+01  0.10000000000E-01 0.  1.
</event>
<event>
 7   0  0.6206631E-02  0.9118800E+02  0.7818608E-02  0.1180000E+00
       11   -1    0    0    0    0  0.00000000000E+00  0.00000000000E+00  0.11999999989E+02  0.12000000000E+02  0.51109989000E-03 0. -1.
     -623   -1    0    0    0    0  0.00000000000E+00  0.00000000000E+00  0.42561509872E-11  0.25126700000E+02  0.25126700000E+02 0. -1.
      622    2    1    2    0    0  0.45564121880E-02  0.80091392867E-02  0.11945639292E+02  0.11946056777E+02  0.99446019707E-01 0.  0.
       11    1    1    2    0    0 -0.33951277429E-02 -0.85383181333E-02  0.53152363210E-01  0.53943161818E-01  0.51109989000E-03 0. -1.
     -623    1    1    2    0    0 -0.11612844451E-02  0.52917884663E-03  0.12083339096E-02  0.25126700061E+02  0.25126700000E+02 0. -1.
     -611    1    3    3    0    0 -0.51247242131E-02 -0.29402620567E-01  0.97738415073E+01  0.97738921923E+01  0.10000000000E-01 0. -1.
      611    1    3    3    0    0  0.96811364011E-02  0.37411759854E-01  0.21717977847E+01  0.21721645844E+01  0.10000000000E-01 0.  1.
</event>
<event>
 7   0  0.6206631E-02  0.9118800E+02  0.7818608E-02  0.1180000E+00
       11   -1    0    0    0    0  0.00000000000E+00  0.00000000000E+00  0.11999999989E+02  0.12000000000E+02  0.51109989000E-03 0.  1.
     -623   -1    0    0    0    0  0.00000000000E+00  0.00000000000E+00  0.42561509872E-11  0.25126700000E+02  0.25126700000E+02 0. -1.
      622    2    1    2    0    0 -0.12662598336E+00  0.28311561040E-01  0.11156630775E+02  0.11157794689E+02  0.95584467972E-01 0.  0.
       11    1    1    2    0    0  0.11076326703E+00 -0.14414697174E-01  0.83475496109E+00  0.84219498401E+00  0.51109989000E-03 0.  1.
     -623    1    1    2    0    0  0.15862716326E-01 -0.13896863866E-01  0.86142529002E-02  0.25126710327E+02  0.25126700000E+02 0. -1.
     -611    1    3    3    0    0 -0.81599357179E-01  0.26945901174E-01  0.36616683224E+01  0.36626901917E+01  0.10000000000E-01 0. -1.
      611    1    3    3    0    0 -0.45026626182E-01  0.13656598666E-02  0.74949624527E+01  0.74951044976E+01  0.10000000000E-01 0.  1.
</event>
<event>
 7   0  0.6206631E-02  0.9118800E+02  0.7818608E-02  0.1180000E+00
       11   -1    0    0    0    0  0.00000000000E+00  0.00000000000E+00  0.11999999989E+02  0.12000000000E+02  0.51109989000E-03 0. -1.
     -623   -1    0    0    0    0  0.00000000000E+00  0.00000000000E+00  0.42561509872E-11  0.25126700000E+02  0.25126700000E+02 0. -1.
      622    2    1    2    0    0  0.48468551300E-02 -0.19649585851E-01  0.10868793842E+02  0.10868891469E+02  0.41383448769E-01 0.  0.
       11    1    1    2    0    0 -0.58321648975E-02  0.22669374645E-01  0.11308659841E+01  0.11311083281E+01  0.51109989000E-03 0. -1.
     -623    1    1    2    0    0  0.98530976749E-03 -0.30197887938E-02  0.34016335124E-03  0.25126700203E+02  0.25126700000E+02 0. -1.
     -611    1    3    3    0    0 -0.57753374707E-02 -0.26494111638E-01  0.57994206242E+01  0.57994926389E+01  0.10000000000E-01 0. -1.
      611    1    3    3    0    0  0.10622192601E-01  0.68445257866E-02  0.50693732175E+01  0.50693988299E+01  0.10000000000E-01 0. -1.
</event>
<event>
 7   0  0.6206631E-02  0.9118800E+02  0.7818608E-02  0.1180000E+00
       11   -1    0    0    0    0  0.00000000000E+00  0.00000000000E+00  0.11999999989E+02  0.12000000000E+02  0.51109989000E-03 0.  1.
     -623   -1    0    0    0    0  0.00000000000E+00  0.00000000000E+00  0.42561509872E-11  0.25126700000E+02  0.25126700000E+02 0.  1.
      622    2    1    2    0    0  0.50368773633E-01 -0.32847879260E-01  0.54787529266E+01  0.54796973843E+01  0.82059711128E-01 0.  0.
       11    1    1    2    0    0 -0.39949290358E-01 -0.89959482302E-02  0.65201369787E+01  0.65202655893E+01  0.51109989000E-03 0.  1.
     -623    1    1    2    0    0 -0.10419483276E-01  0.41843827491E-01  0.11100838223E-02  0.25126737026E+02  0.25126700000E+02 0.  1.
     -611    1    3    3    0    0 -0.10306296579E-01  0.12211635755E-01  0.49074461861E+00  0.49110653069E+00  0.10000000000E-01 0. -1.
      611    1    3    3    0    0  0.60675070213E-01 -0.45059515015E-01  0.49880083080E+01  0.49885908536E+01  0.10000000000E-01 0.  1.
</event>
<event>
 7   0  0.6206631E-02  0.9118800E+02  0.7818608E-02  0.1180000E+00
       11   -1    0    0    0    0  0.00000000000E+00  0.00000000000E+00  0.11999999989E+02  0.12000000000E+02  0.51109989000E-03 0.  1.
     -623   -1    0    0    0    0  0.00000000000E+00  0.00000000000E+00  0.42561509872E-11  0.25126700000E+02  0.25126700000E+02 0.  1.
      622    2    1    2    0    0 -0.10103330455E-02  0.84607001366E-03  0.11992351367E+02  0.11992690332E+02  0.90157362860E-01 0.  0.
       11    1    1    2    0    0  0.61747527661E-03 -0.27970703517E-03  0.72601879652E-02  0.73096555429E-02  0.51109989000E-03 0.  1.
     -623    1    1    2    0    0  0.39285776888E-03 -0.56636297849E-03  0.38843403020E-03  0.25126700012E+02  0.25126700000E+02 0.  1.
     -611    1    3    3    0    0  0.14279599177E-01  0.21113728351E-01  0.12314044739E+01  0.12317088434E+01  0.10000000000E-01 0.  1.
      611    1    3    3    0    0 -0.15289932223E-01 -0.20267658338E-01  0.10760946893E+02  0.10760981489E+02  0.10000000000E-01 0. -1.
</event>
<event>
 7   0  0.6206631E-02  0.9118800E+02  0.7818608E-02  0.1180000E+00
       11   -1    0    0    0    0  0.00000000000E+00  0.00000000000E+00  0.11999999989E+02  0.12000000000E+02  0.51109989000E-03 0. -1.
     -623   -1    0    0    0    0  0.00000000000E+00  0.00000000000E+00  0.42561509872E-11  0.25126700000E+02  0.25126700000E+02 0. -1.
      622    2    1    2    0    0  0.17923106315E-01  0.33674155024E-01  0.10853010087E+02  0.10853767145E+02  0.12238501712E+00 0.  0.
       11    1    1    2    0    0 -0.12732313063E-01 -0.40726865587E-01  0.11454366416E+01  0.11462312815E+01  0.51109989000E-03 0. -1.
     -623    1    1    2    0    0 -0.51907932520E-02  0.70527105622E-02  0.15532604395E-02  0.25126701574E+02  0.25126700000E+02 0. -1.
     -611    1    3    3    0    0 -0.51790896101E-01  0.15703230524E-01  0.51433910524E+01  0.51436854886E+01  0.10000000000E-01 0. -1.
      611    1    3    3    0    0  0.69714002416E-01  0.17970924501E-01  0.57096190347E+01  0.57100816559E+01  0.10000000000E-01 0.  1.
</event>
<event>
 7   0  0.6206631E-02  0.9118800E+02  0.7818608E-02  0.1180000E+00
       11   -1    0    0    0    0  0.00000000000E+00  0.00000000000E+00  0.11999999989E+02  0.12000000000E+02  0.51109989000E-03 0. -1.
     -623   -1    0    0    0    0  0.00000000000E+00  0.00000000000E+00  0.42561509872E-11  0.25126700000E+02  0.25126700000E+02 0. -1.
      622    2    1    2    0    0 -0.19781445736E+00 -0.17058361145E+00  0.83980166297E+01  0.84027680627E+01  0.10769621840E+00 0.  0.
       11    1    1    2    0    0  0.21252908023E+00  0.21075207303E+00  0.35847158360E+01  0.35971895881E+01  0.51109989000E-03 0. -1.
     -623    1    1    2    0    0 -0.14714622865E-01 -0.40168461583E-01  0.17267523397E-01  0.25126742349E+02  0.25126700000E+02 0. -1.
     -611    1    3    3    0    0 -0.52882283959E-01 -0.84612467012E-01  0.44716599766E+01  0.44727842282E+01  0.10000000000E-01 0.  1.
      611    1    3    3    0    0 -0.14493217340E+00 -0.85971144435E-01  0.39263566531E+01  0.39299838345E+01  0.10000000000E-01 0. -1.
</event>
<event>
 7   0  0.6206631E-02  0.9118800E+02  0.7818608E-02  0.1180000E+00
       11   -1    0    0    0    0  0.00000000000E+00  0.00000000000E+00  0.11999999989E+02  0.12000000000E+02  0.51109989000E-03 0. -1.
     -623   -1    0    0    0    0  0.00000000000E+00  0.00000000000E+00  0.42561509872E-11  0.25126700000E+02  0.25126700000E+02 0. -1.
      622    2    1    2    0    0  0.57825174277E-02 -0.77350386314E-02  0.11897783894E+02  0.11898180227E+02  0.96632589424E-01 0.  0.
       11    1    1    2    0    0 -0.48814950603E-02  0.10928440983E-01  0.10111229222E+00  0.10181952995E+00  0.51109989000E-03 0. -1.
     -623    1    1    2    0    0 -0.90102236736E-03 -0.31934023520E-02  0.11038031615E-02  0.25126700243E+02  0.25126700000E+02 0. -1.
     -611    1    3    3    0    0  0.39597872533E-01 -0.18933670244E-01  0.31886925935E+01  0.31890103373E+01  0.10000000000E-01 0. -1.
      611    1    3    3    0    0 -0.33815355105E-01  0.11198631613E-01  0.87090913002E+01  0.87091698894E+01  0.10000000000E-01 0. -1.
</event>
<event>
 7   0  0.6206631E-02  0.9118800E+02  0.7818608E-02  0.1180000E+00
       11   -1    0    0    0    0  0.00000000000E+00  0.00000000000E+00  0.11999999989E+02  0.12000000000E+02  0.51109989000E-03 0.  1.
     -623   -1    0    0    0    0  0.00000000000E+00  0.00000000000E+00  0.42561509872E-11  0.25126700000E+02  0.25126700000E+02 0. -1.
      622    2    1    2    0    0 -0.20039774413E-01 -0.10271937015E-01  0.11592783590E+02  0.11593367372E+02  0.11414268759E+00 0.  0.
       11    1    1    2    0    0 -0.38129062642E-01 -0.36189369752E-01  0.40310840255E+00  0.40652200596E+00  0.51109989000E-03 0.  1.
     -623    1    1    2    0    0  0.58168837054E-01  0.46461306767E-01  0.41079965338E-02  0.25126810622E+02  0.25126700000E+02 0. -1.
     -611    1    3    3    0    0 -0.17239036119E-02 -0.65287723657E-02  0.12875228183E+00  0.12931645985E+00  0.10000000000E-01 0. -1.
      611    1    3    3    0    0 -0.18315870801E-01 -0.37431646492E-02  0.11464031308E+02  0.11464050912E+02  0.10000000000E-01 0.  1.
</event>
<event>
 7   0  0.6206631E-02  0.9118800E+02  0.7818608E-02  0.1180000E+00
       11   -1    0    0    0    0  0.00000000000E+00  0.00000000000E+00  0.11999999989E+02  0.12000000000E+02  0.51109989000E-03 0.  1.
     -623   -1    0    0    0    0  0.00000000000E+00  0.00000000000E+00  0.42561509872E-11  0.25126700000E+02  0.25126700000E+02 0.  1.
      622    2    1    2    0    0 -0.24395352679E-01  0.66629472255E-02  0.11868911504E+02  0.11869422804E+02  0.10722825057E+00 0.  0.
       11    1    1    2    0    0  0.52971436231E-01 -0.54888028356E-02  0.11920175383E+00  0.13055810718E+00  0.51109989000E-03 0.  1.
     -623    1    1    2    0    0 -0.28576083552E-01 -0.11741443899E-02  0.11886731692E-01  0.25126719089E+02  0.25126700000E+02 0.  1.
     -611    1    3    3    0    0 -0.13284911367E-01 -0.47502708047E-01  0.41162168284E+01  0.41165245019E+01  0.10000000000E-01 0. -1.
      611    1    3    3    0    0 -0.11110441312E-01  0.54165655272E-01  0.77526946752E+01  0.77528983023E+01  0.10000000000E-01 0.  1.
</event>
<event>
 7   0  0.6206631E-02  0.9118800E+02  0.7818608E-02  0.1180000E+00
       11   -1    0    0    0    0  0.00000000000E+00  0.00000000000E+00  0.11999999989E+02  0.12000000000E+02  0.51109989000E-03 0.  1.
     -623   -1    0    0    0    0  0.00000000000E+00  0.00000000000E+00  0.42561509872E-11  0.25126700000E+02  0.25126700000E+02 0.  1.
      622    2    1    2    0    0  0.12669799374E-01 -0.36238882028E-01  0.81096850126E+01  0.81103270803E+01  0.94554561694E-01 0.  0.
       11    1    1    2    0    0 -0.19003299038E-01  0.21301436790E-01  0.38895628863E+01  0.38896676702E+01  0.51109989000E-03 0.  1.
     -623    1    1    2    0    0  0.63334996636E-02  0.14937445238E-01  0.75209017695E-03  0.25126705250E+02  0.25126700000E+02 0.  1.
     -611    1    3    3    0    0  0.20774373884E-01 -0.46219756214E-01  0.78286904663E+01  0.78288608531E+01  0.10000000000E-01 0.  1.
      611    1    3    3    0    0 -0.81045745097E-02  0.99808741865E-02  0.28099454628E+00  0.28146622714E+00  0.10000000000E-01 0. -1.
</event>
<event>
 7   0  0.6206631E-02  0.9118800E+02  0.7818608E-02  0.1180000E+00
       11   -1    0    0    0    0  0.00000000000E+00  0.00000000000E+00  0.11999999989E+02  0.12000000000E+02  0.51109989000E-03 0.  1.
     -623   -1    0    0    0    0  0.00000000000E+00  0.00000000000E+00  0.42561509872E-11  0.25126700000E+02  0.25126700000E+02 0. -1.
      622    2    1    2    0    0  0.23419161076E-01 -0.25830654532E-01  0.81028424483E+01  0.81037599728E+01  0.11685150606E+00 0.  0.
       11    1    1    2    0    0 -0.12792965260E-01  0.39545675644E-01  0.38960122802E+01  0.38962340111E+01  0.51109989000E-03 0.  1.
     -623    1    1    2    0    0 -0.10626195816E-01 -0.13715021112E-01  0.11452605707E-02  0.25126706016E+02  0.25126700000E+02 0. -1.
     -611    1    3    3    0    0  0.59567464638E-01 -0.47616754453E-01  0.57902110192E+01  0.57907218276E+01  0.10000000000E-01 0. -1.
      611    1    3    3    0    0 -0.36148303562E-01  0.21786099921E-01  0.23126314292E+01  0.23130381452E+01  0.10000000000E-01 0.  1.
</event>
<event>
 7   0  0.6206631E-02  0.9118800E+02  0.7818608E-02  0.1180000E+00
       11   -1    0    0    0    0  0.00000000000E+00  0.00000000000E+00  0.11999999989E+02  0.12000000000E+02  0.51109989000E-03 0. -1.
     -623   -1    0    0    0    0  0.00000000000E+00  0.00000000000E+00  0.42561509872E-11  0.25126700000E+02  0.25126700000E+02 0. -1.
      622    2    1    2    0    0 -0.15258408419E-01  0.51057788907E-01  0.93853763144E+01  0.93859835576E+01  0.92515213067E-01 0.  0.
       11    1    1    2    0    0  0.12915290290E-01 -0.50197837181E-01  0.26135023041E+01  0.26140162934E+01  0.51109989000E-03 0. -1.
     -623    1    1    2    0    0  0.23431181294E-02 -0.85995172563E-03  0.11213706882E-02  0.25126700149E+02  0.25126700000E+02 0. -1.
     -611    1    3    3    0    0  0.37454486908E-01  0.25926099859E-01  0.47403524758E+01  0.47405818837E+01  0.10000000000E-01 0.  1.
      611    1    3    3    0    0 -0.52712895327E-01  0.25131689047E-01  0.46450238386E+01  0.46454016740E+01  0.10000000000E-01 0. -1.
</event>
<event>
 7   0  0.6206631E-02  0.9118800E+02  0.7818608E-02  0.1180000E+00
       11   -1    0    0    0    0  0.00000000000E+00  0.00000000000E+00  0.11999999989E+02  0.12000000000E+02  0.51109989000E-03 0. -1.
     -623   -1    0    0    0    0  0.00000000000E+00  0.00000000000E+00  0.42561509872E-11  0.25126700000E+02  0.25126700000E+02 0.  1.
      622    2    1    2    0    0 -0.62872224164E-02  0.89187033323E-02  0.11766542284E+02  0.11766959826E+02  0.98524920303E-01 0.  0.
       11    1    1    2    0    0  0.16753461939E-02  0.63579816446E-02  0.23294176623E+00  0.23303510120E+00  0.51109989000E-03 0. -1.
     -623    1    1    2    0    0  0.46118762225E-02 -0.15276684977E-01  0.51593892902E-03  0.25126705073E+02  0.25126700000E+02 0.  1.
     -611    1    3    3    0    0 -0.39264285419E-02 -0.33260446144E-01  0.18964366754E+01  0.18967587454E+01  0.10000000000E-01 0.  1.
      611    1    3    3    0    0 -0.23607938744E-02  0.42179149476E-01  0.98701056085E+01  0.98702010809E+01  0.10000000000E-01 0. -1.
</event>
<event>
 6   0  0.6206631E-02  0.9118800E+02  0.7818608E-02  0.1180000E+00
       11   -1    0    0    0    0  0.00000000000E+00  0.00000000000E+00  0.11999999989E+02  0.12000000000E+02  0.51109989000E-03 0.  1.
     -623   -1    0    0    0    0  0.00000000000E+00  0.00000000000E+00  0.42561509872E-11  0.25126700000E+02  0.25126700000E+02 0. -1.
       11    1    1    2    0    0 -0.12505355335E-01 -0.18911421676E-01  0.28682499627E+01  0.28683396130E+01  0.51109989000E-03 0.  1.
     -623    1    1    2    0    0 -0.12297980071E-02  0.18625354505E-02  0.24588767048E-02  0.25126700219E+02  0.25126700000E+02 0. -1.
     -611    1    1    2    0    0  0.15734157612E-01  0.26418870134E-01  0.22049347128E+00  0.22285172490E+00  0.10000000000E-01 0. -1.
      611    1    1    2    0    0 -0.19990042698E-02 -0.93699839085E-02  0.89087976784E+01  0.89088084426E+01  0.10000000000E-01 0.  1.
</event>
<event>
 7   0  0.6206631E-02  0.9118800E+02  0.7818608E-02  0.1180000E+00
       11   -1    0    0    0    0  0.00000000000E+00  0.00000000000E+00  0.11999999989E+02  0.12000000000E+02  0.51109989000E-03 0. -1.
     -623   -1    0    0    0    0  0.00000000000E+00  0.00000000000E+00  0.42561509872E-11  0.25126700000E+02  0.25126700000E+02 0. -1.
      622    2    1    2    0    0  0.46321232028E-01 -0.28753252803E-02  0.11559038489E+02  0.11559414133E+02  0.80810727841E-01 0.  0.
       11    1    1    2    0    0 -0.50325016349E-01  0.67750184482E-02  0.43764871395E+00  0.44058502720E+00  0.51109989000E-03 0. -1.
     -623    1    1    2    0    0  0.40037843215E-02 -0.38996931679E-02  0.33127859160E-02  0.25126700840E+02  0.25126700000E+02 0. -1.
     -611    1    3    3    0    0 -0.21404530389E-01  0.24625369135E-02  0.23679271012E+01  0.23680462357E+01  0.10000000000E-01 0.  1.
      611    1    3    3    0    0  0.67725762416E-01 -0.53378621938E-02  0.91911113881E+01  0.91913678972E+01  0.10000000000E-01 0. -1.
</event>
<event>
 7   0  0.6206631E-02  0.9118800E+02  0.7818608E-02  0.1180000E+00
       11   -1    0    0    0    0  0.00000000000E+00  0.00000000000E+00  0.11999999989E+02  0.12000000000E+02  0.51109989000E-03 0.  1.
     -623   -1    0    0    0    0  0.00000000000E+00  0.00000000000E+00  0.42561509872E-11  0.25126700000E+02  0.25126700000E+02 0. -1.
      622    2    1    2    0    0 -0.40248445449E-01  0.16191685201E-01  0.10914328181E+02  0.10914843383E+02  0.96769333918E-01 0.  0.
       11    1    1    2    0    0  0.32930093556E-01 -0.20465491538E-01  0.10844621850E+01  0.10851551591E+01  0.51109989000E-03 0.  1.
     -623    1    1    2    0    0  0.73183518928E-02  0.42738063377E-02  0.12096226134E-02  0.25126701458E+02  0.25126700000E+02 0. -1.
     -611    1    3    3    0    0 -0.57524668378E-01 -0.95158010766E-02  0.39881781138E+01  0.39886168411E+01  0.10000000000E-01 0. -1.
      611    1    3    3    0    0  0.17276222929E-01  0.25707486277E-01  0.69261500677E+01  0.69262265414E+01  0.10000000000E-01 0.  1.
</event>
<event>
 7   0  0.6206631E-02  0.9118800E+02  0.7818608E-02  0.1180000E+00
       11   -1    0    0    0    0  0.00000000000E+00  0.00000000000E+00  0.11999999989E+02  0.12000000000E+02  0.51109989000E-03 0.  1.
     -623   -1    0    0    0    0  0.00000000000E+00  0.00000000000E+00  0.42561509872E-11  0.25126700000E+02  0.25126700000E+02 0. -1.
      622    2    1    2    0    0 -0.39302030505E-02 -0.74942980432E-02  0.10348373687E+02  0.10348778479E+02  0.91139680663E-01 0.  0.
       11    1    1    2    0    0  0.44491414025E-02  0.83496525291E-02  0.16511943130E+01  0.16512214970E+01  0.51109989000E-03 0.  1.
     -623    1    1    2    0    0 -0.51893835201E-03 -0.85535448593E-03  0.43198924370E-03  0.25126700024E+02  0.25126700000E+02 0. -1.
     -611    1    3    3    0    0 -0.21700578609E-01 -0.43171669755E-01  0.48399804728E+01  0.48402319867E+01  0.10000000000E-01 0. -1.
      611    1    3    3    0    0  0.17770375558E-01  0.35677371712E-01  0.55083932141E+01  0.55085464927E+01  0.10000000000E-01 0.  1.
</event>
<event>
 7   0  0.6206631E-02  0.9118800E+02  0.7818608E-02  0.1180000E+00
       11   -1    0    0    0    0  0.00000000000E+00  0.00000000000E+00  0.11999999989E+02  0.12000000000E+02  0.51109989000E-03 0. -1.
     -623   -1    0    0    0    0  0.00000000000E+00  0.00000000000E+00  0.42561509872E-11  0.25126700000E+02  0.25126700000E+02 0.  1.
      622    2    1    2    0    0  0.14966121985E+00 -0.16581268547E+00  0.68368270649E+01  0.68408640069E+01  0.72963815354E-01 0.  0.
       11    1    1    2    0    0 -0.17743357948E+00  0.19241369973E+00  0.51524606751E+01  0.51591042804E+01  0.51109989000E-03 0. -1.
     -623    1    1    2    0    0  0.27772359635E-01 -0.26601014255E-01  0.10712249157E-01  0.25126731713E+02  0.25126700000E+02 0.  1.
     -611    1    3    3    0    0  0.14086838106E+00 -0.15485900459E+00  0.56062530016E+01  0.56101691534E+01  0.10000000000E-01 0. -1.
      611    1    3    3    0    0  0.87928387893E-02 -0.10953680877E-01  0.12305740633E+01  0.12306948535E+01  0.10000000000E-01 0.  1.
</event>
<event>
 7   0  0.6206631E-02  0.9118800E+02  0.7818608E-02  0.1180000E+00
       11   -1    0    0    0    0  0.00000000000E+00  0.00000000000E+00  0.11999999989E+02  0.12000000000E+02  0.51109989000E-03 0. -1.
     -623   -1    0    0    0    0  0.00000000000E+00  0.00000000000E+00  0.42561509872E-11  0.25126700000E+02  0.25126700000E+02 0. -1.
      622    2    1    2    0    0  0.40001669813E-01 -0.67604553038E-01  0.81360942060E+01  0.81372301157E+01  0.11097079488E+00 0.  0.
       11    1    1    2    0    0 -0.65952305780E-01  0.70513513007E-01  0.38615493487E+01  0.38627562046E+01  0.51109989000E-03 0. -1.
     -623    1    1    2    0    0  0.25950635967E-01 -0.29089599692E-02  0.23564343208E-02  0.25126713680E+02  0.25126700000E+02 0. -1.
     -611    1    3    3    0    0  0.38805641143E-02  0.29165959114E-01  0.14723815709E+01  0.14727094765E+01  0.10000000000E-01 0.  1.
      611    1    3    3    0    0  0.36121105698E-01 -0.96770512152E-01  0.66637126351E+01  0.66645206392E+01  0.10000000000E-01 0. -1.
</event>
<event>
 7   0  0.6206631E-02  0.9118800E+02  0.7818608E-02  0.1180000E+00
       11   -1    0    0    0    0  0.00000000000E+00  0.00000000000E+00  0.11999999989E+02  0.12000000000E+02  0.51109989000E-03 0. -1.
     -623   -1    0    0    0    0  0.00000000000E+00  0.00000000000E+00  0.42561509872E-11  0.25126700000E+02  0.25126700000E+02 0.  1.
      622    2    1    2    0    0 -0.52149105377E-02 -0.12967886538E-01  0.10702685856E+02  0.10703204080E+02  0.10439198030E+00 0.  0.
       11    1    1    2    0    0  0.83929148337E-02 -0.52745714249E-02  0.12967511030E+01  0.12967890909E+01  0.51109989000E-03 0. -1.
     -623    1    1    2    0    0 -0.31780042960E-02  0.18242457962E-01  0.56303061195E-03  0.25126706829E+02  0.25126700000E+02 0.  1.
     -611    1    3    3    0    0 -0.36378962907E-01 -0.20877396080E-01  0.20534094036E+01  0.20538620873E+01  0.10000000000E-01 0.  1.
      611    1    3    3    0    0  0.31164052369E-01  0.79095095422E-02  0.86492764519E+01  0.86493419923E+01  0.10000000000E-01 0. -1.
</event>
<event>
 7   0  0.6206631E-02  0.9118800E+02  0.7818608E-02  0.1180000E+00
       11   -1    0    0    0    0  0.00000000000E+00  0.00000000000E+00  0.11999999989E+02  0.12000000000E+02  0.51109989000E-03 0.  1.
     -623   -1    0    0    0    0  0.00000000000E+00  0.00000000000E+00  0.42561509872E-11  0.25126700000E+02  0.25126700000E+02 0.  1.
      622    2    1    2    0    0  0.39313447165E-03  0.44860384813E-03  0.11989175377E+02  0.11989466952E+02  0.83613497331E-01 0.  0.
       11    1    1    2    0    0  0.31874513576E-03 -0.63757936216E-03  0.10496452058E-01  0.10533035403E-01  0.51109989000E-03 0.  1.
     -623    1    1    2    0    0 -0.71187960741E-03  0.18897551403E-03  0.32816040717E-03  0.25126700013E+02  0.25126700000E+02 0.  1.
     -611    1    3    3    0    0 -0.12401688566E-01 -0.37413562743E-01  0.47358370519E+01  0.47360116299E+01  0.10000000000E-01 0. -1.
      611    1    3    3    0    0  0.12794823038E-01  0.37862166591E-01  0.72533383247E+01  0.72534553217E+01  0.10000000000E-01 0.  1.
</event>
<event>
 7   0  0.6206631E-02  0.9118800E+02  0.7818608E-02  0.1180000E+00
       11   -1    0    0    0    0  0.00000000000E+00  0.00000000000E+00  0.11999999989E+02  0.12000000000E+02  0.51109989000E-03 0.  1.
     -623   -1    0    0    0    0  0.00000000000E+00  0.00000000000E+00  0.42561509872E-11  0.25126700000E+02  0.25126700000E+02 0.  1.
      622    2    1    2    0    0 -0.30094373806E-01  0.31497433714E-02  0.11423542622E+02  0.11424019905E+02  0.99945857772E-01 0.  0.
       11    1    1    2    0    0 -0.73230586772E-02  0.12402307794E-01  0.57576706763E+00  0.57594741237E+00  0.51109989000E-03 0.  1.
     -623    1    1    2    0    0  0.37417432484E-01 -0.15552051166E-01  0.69029993815E-03  0.25126732682E+02  0.25126700000E+02 0.  1.
     -611    1    3    3    0    0 -0.59793006554E-01  0.94365269411E-02  0.96086394628E+01  0.96088353393E+01  0.10000000000E-01 0. -1.
      611    1    3    3    0    0  0.29698632748E-01 -0.62867835697E-02  0.18149031588E+01  0.18151845659E+01  0.10000000000E-01 0.  1.
</event>
<event>
 7   0  0.6206631E-02  0.9118800E+02  0.7818608E-02  0.1180000E+00
       11   -1    0    0    0    0  0.00000000000E+00  0.00000000000E+00  0.11999999989E+02  0.12000000000E+02  0.51109989000E-03 0.  1.
     -623   -1    0    0    0    0  0.00000000000E+00  0.00000000000E+00  0.42561509872E-11  0.25126700000E+02  0.25126700000E+02 0.  1.
      622    2    1    2    0    0  0.37079763497E-01  0.40984966475E-03  0.10289860600E+02  0.10290411612E+02  0.99824398010E-01 0.  0.
       11    1    1    2    0    0 -0.34155836802E-01 -0.32126561508E-02  0.17092437159E+01  0.17095880451E+01  0.51109989000E-03 0.  1.
     -623    1    1    2    0    0 -0.29239266944E-02  0.28028064861E-02  0.89567322207E-03  0.25126700342E+02  0.25126700000E+02 0.  1.
     -611    1    3    3    0    0 -0.26221050458E-01 -0.23809216661E-01  0.29015913758E+01  0.29018247594E+01  0.10000000000E-01 0. -1.
      611    1    3    3    0    0  0.63300813954E-01  0.24219066326E-01  0.73882692241E+01  0.73885868530E+01  0.10000000000E-01 0.  1.
</event>
<event>
 7   0  0.6206631E-02  0.9118800E+02  0.7818608E-02  0.1180000E+00
       11   -1    0    0    0    0  0.00000000000E+00  0.00000000000E+00  0.11999999989E+02  0.12000000000E+02  0.51109989000E-03 0. -1.
     -623   -1    0    0    0    0  0.00000000000E+00  0.00000000000E+00  0.42561509872E-11  0.25126700000E+02  0.25126700000E+02 0. -1.
      622    2    1    2    0    0  0.19878021560E-01 -0.69812725195E-02  0.11942171445E+02  0.11942787927E+02  0.11950212933E+00 0.  0.
       11    1    1    2    0    0 -0.50694952614E-02 -0.44121597093E-02  0.56806654356E-01  0.57205105872E-01  0.51109989000E-03 0. -1.
     -623    1    1    2    0    0 -0.14808526299E-01  0.11393432229E-01  0.10218896473E-02  0.25126706968E+02  0.25126700000E+02 0. -1.
     -611    1    3    3    0    0  0.64778697709E-01 -0.27341492105E-01  0.70969594938E+01  0.70973148369E+01  0.10000000000E-01 0. -1.
      611    1    3    3    0    0 -0.44900676149E-01  0.20360219585E-01  0.48452119513E+01  0.48454730896E+01  0.10000000000E-01 0.  1.
</event>
<event>
 7   0  0.6206631E-02  0.9118800E+02  0.7818608E-02  0.1180000E+00
       11   -1    0    0    0    0  0.00000000000E+00  0.00000000000E+00  0.11999999989E+02  0.12000000000E+02  0.51109989000E-03 0.  1.
     -623   -1    0    0    0    0  0.00000000000E+00  0.00000000000E+00  0.42561509872E-11  0.25126700000E+02  0.25126700000E+02 0. -1.
      622    2    1    2    0    0 -0.14520527465E-01  0.31631721177E-01  0.82477766522E+01  0.82486481244E+01  0.11473780526E+00 0.  0.
       11    1    1    2    0    0  0.33240238289E-02 -0.52742985237E-01  0.37509681778E+01  0.37513404809E+01  0.51109989000E-03 0.  1.
     -623    1    1    2    0    0  0.11196503636E-01  0.21111264060E-01  0.12551591231E-02  0.25126711395E+02  0.25126700000E+02 0. -1.
     -611    1    3    3    0    0  0.19346909658E-01 -0.10778240843E-01  0.64031814555E+01  0.64032275632E+01  0.10000000000E-01 0.  1.
      611    1    3    3    0    0 -0.33867437122E-01  0.42409962019E-01  0.18445951966E+01  0.18454205612E+01  0.10000000000E-01 0. -1.
</event>
<event>
 7   0  0.6206631E-02  0.9118800E+02  0.7818608E-02  0.1180000E+00
       11   -1    0    0    0    0  0.00000000000E+00  0.00000000000E+00  0.11999999989E+02  0.12000000000E+02  0.51109989000E-03 0. -1.
     -623   -1    0    0    0    0  0.00000000000E+00  0.00000000000E+00  0.42561509872E-11  0.25126700000E+02  0.25126700000E+02 0. -1.
      622    2    1    2    0    0  0.30773340813E-01  0.39783362190E-01  0.78261035004E+01  0.78267023123E+01  0.82724681167E-01 0.  0.
       11    1    1    2    0    0 -0.19576106026E-01 -0.42806309469E-01  0.41730295060E+01  0.41732949959E+01  0.51109989000E-03 0. -1.
     -623    1    1    2    0    0 -0.11197234788E-01  0.30229472788E-02  0.86698274495E-03  0.25126702692E+02  0.25126700000E+02 0. -1.
     -611    1    3    3    0    0  0.25180538987E-01  0.44439311378E-01  0.23152778017E+01  0.23158627358E+01  0.10000000000E-01 0. -1.
      611    1    3    3    0    0  0.55928018264E-02 -0.46559491882E-02  0.55108256987E+01  0.55108395765E+01  0.10000000000E-01 0.  1.
</event>
<event>
 7   0  0.6206631E-02  0.9118800E+02  0.7818608E-02  0.1180000E+00
       11   -1    0    0    0    0  0.00000000000E+00  0.00000000000E+00  0.11999999989E+02  0.12000000000E+02  0.51109989000E-03 0.  1.
     -623   -1    0    0    0    0  0.00000000000E+00  0.00000000000E+00  0.42561509872E-11  0.25126700000E+02  0.25126700000E+02 0. -1.
      622    2    1    2    0    0 -0.69778643729E-01  0.63596747905E-01  0.46020066623E+01  0.46046904701E+01  0.12567975384E+00 0.  0.
       11    1    1    2    0    0  0.68198340502E-01 -0.66477521263E-01  0.73946958104E+01  0.73953090987E+01  0.51109989000E-03 0.  1.
     -623    1    1    2    0    0  0.15803032264E-02  0.28807733575E-02  0.32975163906E-02  0.25126700431E+02  0.25126700000E+02 0. -1.
     -611    1    3    3    0    0 -0.88870500688E-01  0.78139913764E-01  0.28269855993E+01  0.28294789963E+01  0.10000000000E-01 0.  1.
      611    1    3    3    0    0  0.19091856959E-01 -0.14543165859E-01  0.17750210630E+01  0.17752114738E+01  0.10000000000E-01 0. -1.
</event>
<event>
 7   0  0.6206631E-02  0.9118800E+02  0.7818608E-02  0.1180000E+00
       11   -1    0    0    0    0  0.00000000000E+00  0.00000000000E+00  0.11999999989E+02  0.12000000000E+02  0.51109989000E-03 0.  1.
     -623   -1    0    0    0    0  0.00000000000E+00  0.00000000000E+00  0.42561509872E-11  0.25126700000E+02  0.25126700000E+02 0. -1.
      622    2    1    2    0    0  0.29228000755E-03  0.61302240824E-03  0.11994597699E+02  0.11994994653E+02  0.97582351279E-01 0.  0.
       11    1    1    2    0    0  0.12609704954E-03  0.42919395071E-03  0.49590193327E-02  0.50053175518E-02  0.51109989000E-03 0.  1.
     -623    1    1    2    0    0 -0.41837705709E-03 -0.10422163590E-02  0.44327084139E-03  0.25126700029E+02  0.25126700000E+02 0. -1.
     -611    1    3    3    0    0  0.39283362505E-01  0.17673907266E-01  0.34255043087E+01  0.34257897364E+01  0.10000000000E-01 0. -1.
      611    1    3    3    0    0 -0.38991082497E-01 -0.17060884858E-01  0.85690933903E+01  0.85692049170E+01  0.10000000000E-01 0.  1.
</event>
<event>
 7   0  0.6206631E-02  0.9118800E+02  0.7818608E-02  0.1180000E+00
       11   -1    0    0    0    0  0.00000000000E+00  0.00000000000E+00  0.11999999989E+02  0.12000000000E+02  0.51109989000E-03 0. -1.
     -623   -1    0    0    0    0  0.00000000000E+00  0.00000000000E+00  0.42561509872E-11  0.25126700000E+02  0.25126700000E+02 0.  1.
      622    2    1    2    0    0  0.50804366778E-01  0.77847444837E-01  0.97727193604E+01  0.97734433718E+01  0.74231644485E-01 0.  0.
       11    1    1    2    0    0 -0.56813540061E-01 -0.63369475514E-01  0.22249243633E+01  0.22265516280E+01  0.51109989000E-03 0. -1.
     -623    1    1    2    0    0  0.60091732827E-02 -0.14477969323E-01  0.23562654461E-02  0.25126705000E+02  0.25126700000E+02 0.  1.
     -611    1    3    3    0    0 -0.49367397949E-02  0.37695122581E-01  0.18379550812E+01  0.18383754171E+01  0.10000000000E-01 0.  1.
      611    1    3    3    0    0  0.55741106573E-01  0.40152322255E-01  0.79347642792E+01  0.79350679547E+01  0.10000000000E-01 0. -1.
</event>
<event>
 7   0  0.6206631E-02  0.9118800E+02  0.7818608E-02  0.1180000E+00
       11   -1    0    0    0    0  0.00000000000E+00  0.00000000000E+00  0.11999999989E+02  0.12000000000E+02  0.51109989000E-03 0.  1.
     -623   -1    0    0    0    0  0.00000000000E+00  0.00000000000E+00  0.42561509872E-11  0.25126700000E+02  0.25126700000E+02 0. -1.
      622    2    1    2    0    0  0.44029058433E-02 -0.38067146976E-03  0.11875591481E+02  0.11875849117E+02  0.78100545071E-01 0.  0.
       11    1    1    2    0    0 -0.21034150620E-02  0.35070551343E-02  0.12408215740E+00  0.12415058115E+00  0.51109989000E-03 0.  1.
     -623    1    1    2    0    0 -0.22994907813E-02 -0.31263836645E-02  0.32635068282E-03  0.25126700302E+02  0.25126700000E+02 0. -1.
     -611    1    3    3    0    0  0.21425194269E-02 -0.15868622527E-01  0.11161960712E+02  0.11161976677E+02  0.10000000000E-01 0.  1.
      611    1    3    3    0    0  0.22603864164E-02  0.15487951057E-01  0.71363076904E+00  0.71387243993E+00  0.10000000000E-01 0. -1.
</event>
<event>
 7   0  0.6206631E-02  0.9118800E+02  0.7818608E-02  0.1180000E+00
       11   -1    0    0    0    0  0.00000000000E+00  0.00000000000E+00  0.11999999989E+02  0.12000000000E+02  0.51109989000E-03 0.  1.
     -623   -1    0    0    0    0  0.00000000000E+00  0.00000000000E+00  0.42561509872E-11  0.25126700000E+02  0.25126700000E+02 0. -1.
      622    2    1    2    0    0  0.12338940031E-02 -0.14659562352E-02  0.11993430391E+02  0.11993861564E+02  0.10168081401E+00 0.  0.
       11    1    1    2    0    0 -0.62163144892E-03 -0.66276607883E-03  0.60491507529E-02  0.61383330378E-02  0.51109989000E-03 0.  1.
     -623    1    1    2    0    0 -0.61226255415E-03  0.21287223140E-02  0.52044687727E-03  0.25126700103E+02  0.25126700000E+02 0. -1.
     -611    1    3    3    0    0 -0.87291405216E-02  0.14933953980E-01  0.11427752406E+02  0.11427769874E+02  0.10000000000E-01 0.  1.
      611    1    3    3    0    0  0.99630345247E-02 -0.16399910215E-01  0.56567798508E+00  0.56609169038E+00  0.10000000000E-01 0.  1.
</event>
<event>
 7   0  0.6206631E-02  0.9118800E+02  0.7818608E-02  0.1180000E+00
       11   -1    0    0    0    0  0.00000000000E+00  0.00000000000E+00  0.11999999989E+02  0.12000000000E+02  0.51109989000E-03 0. -1.
     -623   -1    0    0    0    0  0.00000000000E+00  0.00000000000E+00  0.42561509872E-11  0.25126700000E+02  0.25126700000E+02 0. -1.
      622    2    1    2    0    0 -0.43394994378E-02 -0.89625328718E-02  0.90381354951E+01  0.90383451496E+01  0.60750770372E-01 0.  0.
       11    1    1    2    0    0  0.45962997985E-02  0.87645407953E-02  0.29616382680E+01  0.29616548474E+01  0.51109989000E-03 0. -1.
     -623    1    1    2    0    0 -0.25680036078E-03  0.19799207647E-03  0.22622602002E-03  0.25126700003E+02  0.25126700000E+02 0. -1.
     -611    1    3    3    0    0 -0.20142291840E-01 -0.60140853211E-03  0.13884970489E+01  0.13886792748E+01  0.10000000000E-01 0.  1.
      611    1    3    3    0    0  0.15802792402E-01 -0.83611243397E-02  0.76496384463E+01  0.76496658747E+01  0.10000000000E-01 0. -1.
</event>
<event>
 7   0  0.6206631E-02  0.9118800E+02  0.7818608E-02  0.1180000E+00
       11   -1    0    0    0    0  0.00000000000E+00  0.00000000000E+00  0.11999999989E+02  0.12000000000E+02  0.51109989000E-03 0. -1.
     -623   -1    0    0    0    0  0.00000000000E+00  0.00000000000E+00  0.42561509872E-11  0.25126700000E+02  0.25126700000E+02 0. -1.
      622    2    1    2    0    0  0.25579675242E-01  0.33567257949E-01  0.93017675393E+01  0.93025551707E+01  0.11345601351E+00 0.  0.
       11    1    1    2    0    0 -0.41564042267E-01  0.16824014657E-01  0.26970164151E+01  0.26973891862E+01  0.51109989000E-03 0. -1.
     -623    1    1    2    0    0  0.15984367025E-01 -0.50391272607E-01  0.12160346401E-02  0.25126755643E+02  0.25126700000E+02 0. -1.
     -611    1    3    3    0    0  0.59729398870E-01  0.52365518159E-01  0.66581927480E+01  0.66586740736E+01  0.10000000000E-01 0.  1.
      611    1    3    3    0    0 -0.34149723628E-01 -0.18798260210E-01  0.26435747913E+01  0.26438810971E+01  0.10000000000E-01 0. -1.
</event>
<event>
 7   0  0.6206631E-02  0.9118800E+02  0.7818608E-02  0.1180000E+00
       11   -1    0    0    0    0  0.00000000000E+00  0.00000000000E+00  0.11999999989E+02  0.12000000000E+02  0.51109989000E-03 0. -1.
     -623   -1    0    0    0    0  0.00000000000E+00  0.00000000000E+00  0.42561509872E-11  0.25126700000E+02  0.25126700000E+02 0. -1.
      622    2    1    2    0    0 -0.51465193068E-02 -0.37644299689E-01  0.10650579384E+02  0.10651112046E+02  0.99513909240E-01 0.  0.
       11    1    1    2    0    0  0.77455141274E-03  0.38185773798E-01  0.13483466148E+01  0.13488875446E+01  0.51109989000E-03 0. -1.
     -623    1    1    2    0    0  0.43719678941E-02 -0.54147410875E-03  0.10739899502E-02  0.25126700409E+02  0.25126700000E+02 0. -1.
     -611    1    3    3    0    0  0.24853013604E-02 -0.33219561319E-01  0.11555964465E+01  0.11561197443E+01  0.10000000000E-01 0.  1.
      611    1    3    3    0    0 -0.76318206673E-02 -0.44247383696E-02  0.94949829379E+01  0.94949923020E+01  0.10000000000E-01 0. -1.
</event>
<event>
 7   0  0.6206631E-02  0.9118800E+02  0.7818608E-02  0.1180000E+00
       11   -1    0    0    0    0  0.00000000000E+00  0.00000000000E+00  0.11999999989E+02  0.12000000000E+02  0.51109989000E-03 0. -1.
     -623   -1    0    0    0    0  0.00000000000E+00  0.00000000000E+00  0.42561509872E-11  0.25126700000E+02  0.25126700000E+02 0.  1.
      622    2    1    2    0    0 -0.34456722611E-01 -0.19166786544E-03  0.11461027899E+02  0.11461334757E+02  0.76463076919E-01 0.  0.
       11    1    1    2    0    0  0.25690950549E-01 -0.37575181020E-02  0.53803702391E+00  0.53866338673E+00  0.51109989000E-03 0. -1.
     -623    1    1    2    0    0  0.87657720612E-02  0.39491859674E-02  0.93506646220E-03  0.25126701857E+02  0.25126700000E+02 0.  1.
     -611    1    3    3    0    0  0.89142672167E-02 -0.24842869238E-01  0.61036842325E+01  0.61037494904E+01  0.10000000000E-01 0.  1.
      611    1    3    3    0    0 -0.43370989827E-01  0.24651201373E-01  0.53573436663E+01  0.53575852661E+01  0.10000000000E-01 0. -1.
</event>
<event>
 7   0  0.6206631E-02  0.9118800E+02  0.7818608E-02  0.1180000E+00
       11   -1    0    0    0    0  0.00000000000E+00  0.00000000000E+00  0.11999999989E+02  0.12000000000E+02  0.51109989000E-03 0.  1.
     -623   -1    0    0    0    0  0.00000000000E+00  0.00000000000E+00  0.42561509872E-11  0.25126700000E+02  0.25126700000E+02 0.  1.
      622    2    1    2    0    0 -0.23283139378E-01 -0.46075193676E-02  0.66679562844E+01  0.66684320770E+01  0.76039600936E-01 0.  0.
       11    1    1    2    0    0  0.23327338785E-01  0.37928826929E-02  0.53315154980E+01  0.53315679042E+01  0.51109989000E-03 0.  1.
     -623    1    1    2    0    0 -0.44199407014E-04  0.81463667471E-03  0.52820672594E-03  0.25126700019E+02  0.25126700000E+02 0.  1.
     -611    1    3    3    0    0  0.11096869509E-01  0.16120775860E-01  0.46489722693E+01  0.46490242181E+01  0.10000000000E-01 0.  1.
      611    1    3    3    0    0 -0.34380008887E-01 -0.20728295228E-01  0.20189840152E+01  0.20194078589E+01  0.10000000000E-01 0. -1.
</event>
<event>
 7   0  0.6206631E-02  0.9118800E+02  0.7818608E-02  0.1180000E+00
       11   -1    0    0    0    0  0.00000000000E+00  0.00000000000E+00  0.11999999989E+02  0.12000000000E+02  0.51109989000E-03 0.  1.
     -623   -1    0    0    0    0  0.00000000000E+00  0.00000000000E+00  0.42561509872E-11  0.25126700000E+02  0.25126700000E+02 0. -1.
      622    2    1    2    0    0 -0.14854689691E-02 -0.39671756748E-02  0.11966943661E+02  0.11967713051E+02  0.13563607990E+00 0.  0.
       11    1    1    2    0    0 -0.83869596760E-03  0.12033061825E-02  0.32249292840E-01  0.32286676331E-01  0.51109989000E-03 0.  1.
     -623    1    1    2    0    0  0.23241649367E-02  0.27638694923E-02  0.80703531048E-03  0.25126700272E+02  0.25126700000E+02 0. -1.
     -611    1    3    3    0    0  0.37316958887E-02 -0.52796220327E-01  0.99537051121E+01  0.99538508541E+01  0.10000000000E-01 0.  1.
      611    1    3    3    0    0 -0.52171648578E-02  0.48829044653E-01  0.20132385488E+01  0.20138621971E+01  0.10000000000E-01 0. -1.
</event>
<event>
 7   0  0.6206631E-02  0.9118800E+02  0.7818608E-02  0.1180000E+00
       11   -1    0    0    0    0  0.00000000000E+00  0.00000000000E+00  0.11999999989E+02  0.12000000000E+02  0.51109989000E-03 0.  1.
     -623   -1    0    0    0    0  0.00000000000E+00  0.00000000000E+00  0.42561509872E-11  0.25126700000E+02  0.25126700000E+02 0. -1.
      622    2    1    2    0    0  0.55091687017E-02 -0.15616004324E-02  0.11998623172E+02  0.11998831279E+02  0.70436248785E-01 0.  0.
       11    1    1    2    0    0 -0.44542276636E-03 -0.93746888419E-03  0.16088397588E-03  0.11680565688E-02  0.51109989000E-03 0.  1.
     -623    1    1    2    0    0 -0.50637459354E-02  0.24990693166E-02  0.12159333398E-02  0.25126700664E+02  0.25126700000E+02 0. -1.
     -611    1    3    3    0    0  0.34170595072E-02  0.10068616745E-01  0.11395887405E+02  0.11395896753E+02  0.10000000000E-01 0.  1.
      611    1    3    3    0    0  0.20921091945E-02 -0.11630217177E-01  0.60273576697E+00  0.60293452684E+00  0.10000000000E-01 0.  1.
</event>
<event>
 7   0  0.6206631E-02  0.9118800E+02  0.7818608E-02  0.1180000E+00
       11   -1    0    0    0    0  0.00000000000E+00  0.00000000000E+00  0.11999999989E+02  0.12000000000E+02  0.51109989000E-03 0.  1.
     -623   -1    0    0    0    0  0.00000000000E+00  0.00000000000E+00  0.42561509872E-11  0.25126700000E+02  0.25126700000E+02 0.  1.
      622    2    1    2    0    0  0.77406545353E-02 -0.29110590065E-02  0.11971759004E+02  0.11972102502E+02  0.90312117719E-01 0.  0.
       11    1    1    2    0    0  0.23743681087E-02  0.16113838869E-01  0.22635675077E-01  0.27891368491E-01  0.51109989000E-03 0.  1.
     -623    1    1    2    0    0 -0.10115022644E-01 -0.13202779863E-01  0.56053104853E-02  0.25126706130E+02  0.25126700000E+02 0.  1.
     -611    1    3    3    0    0  0.74871280590E-02 -0.11951427587E-01  0.11697082170E+02  0.11697094947E+02  0.10000000000E-01 0.  1.
      611    1    3    3    0    0  0.25352647633E-03  0.90403685808E-02  0.27467683335E+00  0.27500755502E+00  0.10000000000E-01 0.  1.
</event>
<event>
 7   0  0.6206631E-02  0.9118800E+02  0.7818608E-02  0.1180000E+00
       11   -1    0    0    0    0  0.00000000000E+00  0.00000000000E+00  0.11999999989E+02  0.12000000000E+02  0.51109989000E-03 0.  1.
     -623   -1    0    0    0    0  0.00000000000E+00  0.00000000000E+00  0.42561509872E-11  0.25126700000E+02  0.25126700000E+02 0.  1.
      622    2    1    2    0    0 -0.90390787732E-02  0.18557524174E-01  0.98679370825E+01  0.98681653343E+01  0.63864809233E-01 0.  0.
       11    1    1    2    0    0  0.29763298185E-02  0.24865828507E-01  0.21316492446E+01  0.21317964094E+01  0.51109989000E-03 0.  1.
     -623    1    1    2    0    0  0.60627489547E-02 -0.43423352681E-01  0.41366211395E-03  0.25126738256E+02  0.25126700000E+02 0.  1.
     -611    1    3    3    0    0 -0.26796022566E-01 -0.10956572402E-01  0.38835143238E+01  0.38836350983E+01  0.10000000000E-01 0. -1.
      611    1    3    3    0    0  0.17756943792E-01  0.29514096576E-01  0.59844227586E+01  0.59845302360E+01  0.10000000000E-01 0.  1.
</event>
<event>
 7   0  0.6206631E-02  0.9118800E+02  0.7818608E-02  0.1180000E+00
       11   -1    0    0    0    0  0.00000000000E+00  0.00000000000E+00  0.11999999989E+02  0.12000000000E+02  0.51109989000E-03 0.  1.
     -623   -1    0    0    0    0  0.00000000000E+00  0.00000000000E+00  0.42561509872E-11  0.25126700000E+02  0.25126700000E+02 0.  1.
      622    2    1    2    0    0  0.22363472251E-01  0.10727421561E-01  0.11540406112E+02  0.11540878420E+02  0.10142119231E+00 0.  0.
       11    1    1    2    0    0 -0.20833438681E-01  0.10471800109E-01  0.45851979023E+00  0.45911256791E+00  0.51109989000E-03 0.  1.
     -623    1    1    2    0    0 -0.15300335700E-02 -0.21199221671E-01  0.10740865318E-02  0.25126709012E+02  0.25126700000E+02 0.  1.
     -611    1    3    3    0    0 -0.34300970821E-01  0.40575840242E-02  0.71470538143E+01  0.71471442721E+01  0.10000000000E-01 0. -1.
      611    1    3    3    0    0  0.56664443072E-01  0.66698375370E-02  0.43933522980E+01  0.43937341477E+01  0.10000000000E-01 0.  1.
</event>
<event>
 7   0  0.6206631E-02  0.9118800E+02  0.7818608E-02  0.1180000E+00
       11   -1    0    0    0    0  0.00000000000E+00  0.00000000000E+00  0.11999999989E+02  0.12000000000E+02  0.51109989000E-03 0. -1.
     -623   -1    0    0    0    0  0.00000000000E+00  0.00000000000E+00  0.42561509872E-11  0.25126700000E+02  0.25126700000E+02 0.  1.
      622    2    1    2    0    0  0.35069785739E-01  0.11834637053E-01  0.10107741145E+02  0.10107982196E+02  0.59186663349E-01 0.  0.
       11    1    1    2    0    0 -0.36610454933E-01 -0.11072177811E-01  0.18916310261E+01  0.18920177374E+01  0.51109989000E-03 0. -1.
     -623    1    1    2    0    0  0.15406691937E-02 -0.76245924105E-03  0.62781754202E-03  0.25126700067E+02  0.25126700000E+02 0.  1.
     -611    1    3    3    0    0  0.48797266155E-01  0.14768920056E-01  0.69636226428E+01  0.69638164540E+01  0.10000000000E-01 0.  1.
      611    1    3    3    0    0 -0.13727480416E-01 -0.29342830034E-02  0.31441185027E+01  0.31441657419E+01  0.10000000000E-01 0. -1.
</event>
<event>
 7   0  0.6206631E-02  0.9118800E+02  0.7818608E-02  0.1180000E+00
       11   -1    0    0    0    0  0.00000000000E+00  0.00000000000E+00  0.11999999989E+02  0.12000000000E+02  0.51109989000E-03 0.  1.
     -623   -1    0    0    0    0  0.00000000000E+00  0.00000000000E+00  0.42561509872E-11  0.25126700000E+02  0.25126700000E+02 0. -1.
      622    2    1    2    0    0 -0.50309554856E-02 -0.52051144600E-02  0.11856512436E+02  0.11856963677E+02  0.10318950004E+00 0.  0.
       11    1    1    2    0    0  0.77560646478E-02  0.25924477618E-03  0.14282409025E+00  0.14303567990E+00  0.51109989000E-03 0.  1.
     -623    1    1    2    0    0 -0.27251091622E-02  0.49458696839E-02  0.66346239824E-03  0.25126700643E+02  0.25126700000E+02 0. -1.
     -611    1    3    3    0    0 -0.15343592361E-01  0.22510705404E-01  0.10364065491E+01  0.10368127568E+01  0.10000000000E-01 0. -1.
      611    1    3    3    0    0  0.10312636876E-01 -0.27715819864E-01  0.10820105887E+02  0.10820150920E+02  0.10000000000E-01 0.  1.
</event>
<event>
 7   0  0.6206631E-02  0.9118800E+02  0.7818608E-02  0.1180000E+00
       11   -1    0    0    0    0  0.00000000000E+00  0.00000000000E+00  0.11999999989E+02  0.12000000000E+02  0.51109989000E-03 0.  1.
     -623   -1    0    0    0    0  0.00000000000E+00  0.00000000000E+00  0.42561509872E-11  0.25126700000E+02  0.25126700000E+02 0.  1.
      622    2    1    2    0    0 -0.27557235423E-01 -0.26838685816E-01  0.10914859276E+02  0.10915426756E+02  0.10444391764E+00 0.  0.
       11    1    1    2    0    0  0.29328256501E-01  0.24880560814E-01  0.10838908174E+01  0.10845730746E+01  0.51109989000E-03 0.  1.
     -623    1    1    2    0    0 -0.17710210784E-02  0.19581250024E-02  0.12498960305E-02  0.25126700170E+02  0.25126700000E+02 0.  1.
     -611    1    3    3    0    0 -0.61599057150E-01 -0.19528820577E-01  0.46138053339E+01  0.46142686829E+01  0.10000000000E-01 0.  1.
      611    1    3    3    0    0  0.34041821727E-01 -0.73098652389E-02  0.63010539418E+01  0.63011580727E+01  0.10000000000E-01 0. -1.
</event>
<event>
 7   0  0.6206631E-02  0.9118800E+02  0.7818608E-02  0.1180000E+00
       11   -1    0    0    0    0  0.00000000000E+00  0.00000000000E+00  0.11999999989E+02  0.12000000000E+02  0.51109989000E-03 0.  1.
     -623   -1    0    0    0    0  0.00000000000E+00  0.00000000000E+00  0.42561509872E-11  0.25126700000E+02  0.25126700000E+02 0. -1.
      622    2    1    2    0    0  0.12325986818E-01 -0.19169548513E-02  0.11011278352E+02  0.11012362183E+02  0.15399446053E+00 0.  0.
       11    1    1    2    0    0 -0.11203829311E-01  0.22805470167E-02  0.98757144729E+00  0.98763776326E+00  0.51109989000E-03 0.  1.
     -623    1    1    2    0    0 -0.11221575073E-02 -0.36359216541E-03  0.11501898372E-02  0.25126700054E+02  0.25126700000E+02 0. -1.
     -611    1    3    3    0    0 -0.37035876282E-01 -0.49393658965E-01  0.81757582867E+01  0.81759974898E+01  0.10000000000E-01 0.  1.
      611    1    3    3    0    0  0.49361863100E-01  0.47476704114E-01  0.28355200653E+01  0.28363646930E+01  0.10000000000E-01 0. -1.
</event>
<event>
 7   0  0.6206631E-02  0.9118800E+02  0.7818608E-02  0.1180000E+00
       11   -1    0    0    0    0  0.00000000000E+00  0.00000000000E+00  0.11999999989E+02  0.12000000000E+02  0.51109989000E-03 0.  1.
     -623   -1    0    0    0    0  0.00000000000E+00  0.00000000000E+00  0.42561509872E-11  0.25126700000E+02  0.25126700000E+02 0.  1.
      622    2    1    2    0    0  0.12872388487E-01 -0.23853634097E-01  0.95742451772E+01  0.95745059784E+01  0.65263497796E-01 0.  0.
       11    1    1    2    0    0 -0.24304243436E-03 -0.13324614679E-01  0.24254266739E+01  0.24254633405E+01  0.51109989000E-03 0.  1.
     -623    1    1    2    0    0 -0.12629346052E-01  0.37178248775E-01  0.32813807316E-03  0.25126730681E+02  0.25126700000E+02 0.  1.
     -611    1    3    3    0    0  0.34465213456E-01 -0.22286613106E-01  0.75889972913E+01  0.75891148648E+01  0.10000000000E-01 0.  1.
      611    1    3    3    0    0 -0.21592824969E-01 -0.15670209908E-02  0.19852478859E+01  0.19853911136E+01  0.10000000000E-01 0. -1.
</event>
<event>
 7   0  0.6206631E-02  0.9118800E+02  0.7818608E-02  0.1180000E+00
       11   -1    0    0    0    0  0.00000000000E+00  0.00000000000E+00  0.11999999989E+02  0.12000000000E+02  0.51109989000E-03 0. -1.
     -623   -1    0    0    0    0  0.00000000000E+00  0.00000000000E+00  0.42561509872E-11  0.25126700000E+02  0.25126700000E+02 0.  1.
      622    2    1    2    0    0 -0.35408800405E-02  0.30505517871E-02  0.11950601224E+02  0.11951021654E+02  0.10013541760E+00 0.  0.
       11    1    1    2    0    0  0.34871037934E-02 -0.21754923000E-02  0.48802892607E-01  0.48978323875E-01  0.51109989000E-03 0. -1.
     -623    1    1    2    0    0  0.53776247113E-04 -0.87505948706E-03  0.59587217268E-03  0.25126700022E+02  0.25126700000E+02 0.  1.
     -611    1    3    3    0    0  0.28991011430E-01  0.37395175295E-01  0.44039292615E+01  0.44041947979E+01  0.10000000000E-01 0.  1.
      611    1    3    3    0    0 -0.32531891471E-01 -0.34344623507E-01  0.75466719629E+01  0.75468268558E+01  0.10000000000E-01 0. -1.
</event>
<event>
 7   0  0.6206631E-02  0.9118800E+02  0.7818608E-02  0.1180000E+00
       11   -1    0    0    0    0  0.00000000000E+00  0.00000000000E+00  0.11999999989E+02  0.12000000000E+02  0.51109989000E-03 0. -1.
     -623   -1    0    0    0    0  0.00000000000E+00  0.00000000000E+00  0.42561509872E-11  0.25126700000E+02  0.25126700000E+02 0.  1.
      622    2    1    2    0    0  0.32021963349E-02  0.35698684242E-02  0.11950882438E+02  0.11951266736E+02  0.95721293537E-01 0.  0.
       11    1    1    2    0    0 -0.32734292917E-03 -0.27452528706E-02  0.48651911019E-01  0.48733081532E-01  0.51109989000E-03 0. -1.
     -623    1    1    2    0    0 -0.28748534057E-02 -0.82461555358E-03  0.46564060774E-03  0.25126700182E+02  0.25126700000E+02 0.  1.
     -611    1    3    3    0    0 -0.16342818794E-01 -0.26712671533E-01  0.17097719345E+01  0.17100879283E+01  0.10000000000E-01 0.  1.
      611    1    3    3    0    0  0.19545015129E-01  0.30282539958E-01  0.10241110503E+02  0.10241178808E+02  0.10000000000E-01 0. -1.
</event>
<event>
 7   0  0.6206631E-02  0.9118800E+02  0.7818608E-02  0.1180000E+00
       11   -1    0    0    0    0  0.00000000000E+00  0.00000000000E+00  0.11999999989E+02  0.12000000000E+02  0.51109989000E-03 0. -1.
     -623   -1    0    0    0    0  0.00000000000E+00  0.00000000000E+00  0.42561509872E-11  0.25126700000E+02  0.25126700000E+02 0. -1.
      622    2    1    2    0    0 -0.10832659295E+00  0.20708984136E-01  0.74221867198E+01  0.74244903682E+01  0.14845204888E+00 0.  0.
       11    1    1    2    0    0  0.85928787160E-01 -0.10500674162E-01  0.45746783485E+01  0.45754973799E+01  0.51109989000E-03 0. -1.
     -623    1    1    2    0    0  0.22397805785E-01 -0.10208309975E-01  0.31349208484E-02  0.25126712252E+02  0.25126700000E+02 0. -1.
     -611    1    3    3    0    0 -0.48859941366E-01 -0.44131321863E-01  0.53478399067E+01  0.53482545317E+01  0.10000000000E-01 0. -1.
      611    1    3    3    0    0 -0.59466651579E-01  0.64840306000E-01  0.20743468131E+01  0.20762358365E+01  0.10000000000E-01 0.  1.
</event>
<event>
 7   0  0.6206631E-02  0.9118800E+02  0.7818608E-02  0.1180000E+00
       11   -1    0    0    0    0  0.00000000000E+00  0.00000000000E+00  0.11999999989E+02  0.12000000000E+02  0.51109989000E-03 0.  1.
     -623   -1    0    0    0    0  0.00000000000E+00  0.00000000000E+00  0.42561509872E-11  0.25126700000E+02  0.25126700000E+02 0. -1.
      622    2    1    2    0    0  0.14837471224E-02  0.59906229981E-03  0.11995067247E+02  0.11995695138E+02  0.12272341897E+00 0.  0.
       11    1    1    2    0    0  0.18178556746E-03  0.17820527535E-04  0.42704368935E-02  0.43047901149E-02  0.51109989000E-03 0.  1.
     -623    1    1    2    0    0 -0.16655326898E-02 -0.61688282734E-03  0.66230543305E-03  0.25126700072E+02  0.25126700000E+02 0. -1.
     -611    1    3    3    0    0 -0.28008377161E-01  0.53503784648E-01  0.57125432957E+01  0.57128712597E+01  0.10000000000E-01 0.  1.
      611    1    3    3    0    0  0.29492124284E-01 -0.52904722348E-01  0.62825239511E+01  0.62828238787E+01  0.10000000000E-01 0. -1.
</event>
<event>
 7   0  0.6206631E-02  0.9118800E+02  0.7818608E-02  0.1180000E+00
       11   -1    0    0    0    0  0.00000000000E+00  0.00000000000E+00  0.11999999989E+02  0.12000000000E+02  0.51109989000E-03 0. -1.
     -623   -1    0    0    0    0  0.00000000000E+00  0.00000000000E+00  0.42561509872E-11  0.25126700000E+02  0.25126700000E+02 0.  1.
      622    2    1    2    0    0  0.12829259007E-01  0.30664512712E-01  0.10674366561E+02  0.10674821355E+02  0.92760845592E-01 0.  0.
       11    1    1    2    0    0 -0.16990861968E-01 -0.25533783678E-01  0.13248226980E+01  0.13251777638E+01  0.51109989000E-03 0. -1.
     -623    1    1    2    0    0  0.41616029612E-02 -0.51307290334E-02  0.81073026064E-03  0.25126700882E+02  0.25126700000E+02 0.  1.
     -611    1    3    3    0    0  0.35526521972E-01  0.31996631630E-01  0.97465125516E+01  0.97466349494E+01  0.10000000000E-01 0. -1.
      611    1    3    3    0    0 -0.22697262965E-01 -0.13321189186E-02  0.92785400925E+00  0.92818640518E+00  0.10000000000E-01 0.  1.
</event>
<event>
 7   0  0.6206631E-02  0.9118800E+02  0.7818608E-02  0.1180000E+00
       11   -1    0    0    0    0  0.00000000000E+00  0.00000000000E+00  0.11999999989E+02  0.12000000000E+02  0.51109989000E-03 0. -1.
     -623   -1    0    0    0    0  0.00000000000E+00  0.00000000000E+00  0.42561509872E-11  0.25126700000E+02  0.25126700000E+02 0.  1.
      622    2    1    2    0    0 -0.55425412052E-02  0.62888574236E-02  0.11887683829E+02  0.11887845458E+02  0.61421093839E-01 0.  0.
       11    1    1    2    0    0  0.33159986852E-02 -0.12945244364E-01  0.11135340468E+00  0.11215354277E+00  0.51109989000E-03 0. -1.
     -623    1    1    2    0    0  0.22265425200E-02  0.66563869408E-02  0.96275520606E-03  0.25126700999E+02  0.25126700000E+02 0.  1.
     -611    1    3    3    0    0 -0.15937856339E-01  0.67552583981E-02  0.13164817521E+01  0.13166335300E+01  0.10000000000E-01 0.  1.
      611    1    3    3    0    0  0.10395315134E-01 -0.46640097446E-03  0.10571202077E+02  0.10571211928E+02  0.10000000000E-01 0. -1.
</event>
<event>
 7   0  0.6206631E-02  0.9118800E+02  0.7818608E-02  0.1180000E+00
       11   -1    0    0    0    0  0.00000000000E+00  0.00000000000E+00  0.11999999989E+02  0.12000000000E+02  0.51109989000E-03 0.  1.
     -623   -1    0    0    0    0  0.00000000000E+00  0.00000000000E+00  0.42561509872E-11  0.25126700000E+02  0.25126700000E+02 0.  1.
      622    2    1    2    0    0  0.50398433145E-02 -0.40522542851E-02  0.11627918655E+02  0.11628183880E+02  0.78270448596E-01 0.  0.
       11    1    1    2    0    0 -0.29503076810E-02  0.44243317773E-02  0.37177764728E+00  0.37181602879E+00  0.51109989000E-03 0.  1.
     -623    1    1    2    0    0 -0.20895356336E-02 -0.37207749220E-03  0.30368642265E-03  0.25126700091E+02  0.25126700000E+02 0.  1.
     -611    1    3    3    0    0  0.28341013505E-02  0.81101231236E-05  0.20769517339E+00  0.20795508469E+00  0.10000000000E-01 0.  1.
      611    1    3    3    0    0  0.22057419640E-02 -0.40603644082E-02  0.11420223482E+02  0.11420228795E+02  0.10000000000E-01 0.  1.
</event>
<event>
 7   0  0.6206631E-02  0.9118800E+02  0.7818608E-02  0.1180000E+00
       11   -1    0    0    0    0  0.00000000000E+00  0.00000000000E+00  0.11999999989E+02  0.12000000000E+02  0.51109989000E-03 0.  1.
     -623   -1    0    0    0    0  0.00000000000E+00  0.00000000000E+00  0.42561509872E-11  0.25126700000E+02  0.25126700000E+02 0. -1.
      622    2    1    2    0    0  0.48903449142E-02 -0.25969113223E-01  0.90051151135E+01  0.90054426268E+01  0.72113704210E-01 0.  0.
       11    1    1    2    0    0 -0.56474314664E-02  0.25440101929E-01  0.29944439189E+01  0.29945573524E+01  0.51109989000E-03 0.  1.
     -623    1    1    2    0    0  0.75708655222E-03  0.52901129470E-03  0.44095675260E-03  0.25126700021E+02  0.25126700000E+02 0. -1.
     -611    1    3    3    0    0  0.21823813051E-01  0.91392226567E-02  0.60380916829E+01  0.60381463194E+01  0.10000000000E-01 0.  1.
      611    1    3    3    0    0 -0.16933468137E-01 -0.35108335880E-01  0.29670234307E+01  0.29672963074E+01  0.10000000000E-01 0. -1.
</event>
<event>
 7   0  0.6206631E-02  0.9118800E+02  0.7818608E-02  0.1180000E+00
       11   -1    0    0    0    0  0.00000000000E+00  0.00000000000E+00  0.11999999989E+02  0.12000000000E+02  0.51109989000E-03 0. -1.
     -623   -1    0    0    0    0  0.00000000000E+00  0.00000000000E+00  0.42561509872E-11  0.25126700000E+02  0.25126700000E+02 0. -1.
      622    2    1    2    0    0 -0.66268449615E-02  0.22472600277E-01  0.98715356587E+01  0.98717043959E+01  0.52749287612E-01 0.  0.
       11    1    1    2    0    0  0.19797178616E-03 -0.22206019477E-01  0.21281788593E+01  0.21282947786E+01  0.51109989000E-03 0. -1.
     -623    1    1    2    0    0  0.64288731753E-02 -0.26658079958E-03  0.28547121731E-03  0.25126700825E+02  0.25126700000E+02 0. -1.
     -611    1    3    3    0    0  0.88777546221E-02  0.10951757102E-01  0.10525278871E+01  0.10526698003E+01  0.10000000000E-01 0. -1.
      611    1    3    3    0    0 -0.15504599584E-01  0.11520843175E-01  0.88190077716E+01  0.88190345956E+01  0.10000000000E-01 0. -1.
</event>
<event>
 7   0  0.6206631E-02  0.9118800E+02  0.7818608E-02  0.1180000E+00
       11   -1    0    0    0    0  0.00000000000E+00  0.00000000000E+00  0.11999999989E+02  0.12000000000E+02  0.51109989000E-03 0. -1.
     -623   -1    0    0    0    0  0.00000000000E+00  0.00000000000E+00  0.42561509872E-11  0.25126700000E+02  0.25126700000E+02 0.  1.
      622    2    1    2    0    0 -0.65147344163E-02  0.10460886887E-01  0.11927593808E+02  0.11928202886E+02  0.11990900183E+00 0.  0.
       11    1    1    2    0    0  0.13116062828E-01 -0.70530318169E-02  0.70232591204E-01  0.71795922254E-01  0.51109989000E-03 0. -1.
     -623    1    1    2    0    0 -0.66013284121E-02 -0.34078550699E-02  0.21735904250E-02  0.25126701192E+02  0.25126700000E+02 0.  1.
     -611    1    3    3    0    0  0.54950807800E-01  0.10455318796E-01  0.66166551772E+01  0.66168991710E+01  0.10000000000E-01 0. -1.
      611    1    3    3    0    0 -0.61465542216E-01  0.55680911321E-05  0.53109386303E+01  0.53113037145E+01  0.10000000000E-01 0. -1.
</event>
<event>
 7   0  0.6206631E-02  0.9118800E+02  0.7818608E-02  0.1180000E+00
       11   -1    0    0    0    0  0.00000000000E+00  0.00000000000E+00  0.11999999989E+02  0.12000000000E+02  0.51109989000E-03 0.  1.
     -623   -1    0    0    0    0  0.00000000000E+00  0.00000000000E+00  0.42561509872E-11  0.25126700000E+02  0.25126700000E+02 0. -1.
      622    2    1    2    0    0  0.28784145387E-01 -0.59593170852E-02  0.60598440971E+01  0.60601602170E+01  0.54473233088E-01 0.  0.
       11    1    1    2    0    0 -0.12583488151E+00  0.34108132631E-01  0.59382054423E+01  0.59396365140E+01  0.51109989000E-03 0.  1.
     -623    1    1    2    0    0  0.97050736127E-01 -0.28148815546E-01  0.19504497452E-02  0.25126903269E+02  0.25126700000E+02 0. -1.
     -611    1    3    3    0    0  0.32384971420E-01  0.10119763020E-02  0.56841834887E+01  0.56842846290E+01  0.10000000000E-01 0. -1.
      611    1    3    3    0    0 -0.36008260330E-02 -0.69712933872E-02  0.37566060848E+00  0.37587558799E+00  0.10000000000E-01 0.  1.
</event>
<event>
 7   0  0.6206631E-02  0.9118800E+02  0.7818608E-02  0.1180000E+00
       11   -1    0    0    0    0  0.00000000000E+00  0.00000000000E+00  0.11999999989E+02  0.12000000000E+02  0.51109989000E-03 0. -1.
     -623   -1    0    0    0    0  0.00000000000E+00  0.00000000000E+00  0.42561509872E-11  0.25126700000E+02  0.25126700000E+02 0.  1.
      622    2    1    2    0    0 -0.13246264339E-01 -0.15972171830E-01  0.11563797427E+02  0.11564417854E+02  0.11797789091E+00 0.  0.
       11    1    1    2    0    0  0.89393468733E-02  0.50973528324E-02  0.43545753938E+00  0.43557941268E+00  0.51109989000E-03 0. -1.
     -623    1    1    2    0    0  0.43069174656E-02  0.10874818998E-01  0.74502234803E-03  0.25126702733E+02  0.25126700000E+02 0.  1.
     -611    1    3    3    0    0  0.32958006215E-01  0.35100760723E-01  0.55463568844E+01  0.55465748875E+01  0.10000000000E-01 0.  1.
      611    1    3    3    0    0 -0.46204270554E-01 -0.51072932553E-01  0.60174405429E+01  0.60178429663E+01  0.10000000000E-01 0. -1.
</event>
<event>
 7   0  0.6206631E-02  0.9118800E+02  0.7818608E-02  0.1180000E+00
       11   -1    0    0    0    0  0.00000000000E+00  0.00000000000E+00  0.11999999989E+02  0.12000000000E+02  0.51109989000E-03 0.  1.
     -623   -1    0    0    0    0  0.00000000000E+00  0.00000000000E+00  0.42561509872E-11  0.25126700000E+02  0.25126700000E+02 0. -1.
      622    2    1    2    0    0  0.20976735000E-03 -0.28275215240E-02  0.11990451301E+02  0.11990901869E+02  0.10390948750E+00 0.  0.
       11    1    1    2    0    0 -0.47939408421E-03  0.19778530028E-02  0.88528292777E-02  0.90981058782E-02  0.51109989000E-03 0.  1.
     -623    1    1    2    0    0  0.26962673421E-03  0.84966852123E-03  0.69585875729E-03  0.25126700025E+02  0.25126700000E+02 0. -1.
     -611    1    3    3    0    0  0.27724279980E-01 -0.42836323099E-01  0.74059360532E+01  0.74061185793E+01  0.10000000000E-01 0. -1.
      611    1    3    3    0    0 -0.27514512630E-01  0.40008801575E-01  0.45845152479E+01  0.45847832894E+01  0.10000000000E-01 0.  1.
</event>
<event>
 7   0  0.6206631E-02  0.9118800E+02  0.7818608E-02  0.1180000E+00
       11   -1    0    0    0    0  0.00000000000E+00  0.00000000000E+00  0.11999999989E+02  0.12000000000E+02  0.51109989000E-03 0. -1.
     -623   -1    0    0    0    0  0.00000000000E+00  0.00000000000E+00  0.42561509872E-11  0.25126700000E+02  0.25126700000E+02 0. -1.
      622    2    1    2    0    0 -0.44677573670E-01 -0.66183898492E-02  0.11088172090E+02  0.11089482058E+02  0.16435366923E+00 0.  0.
       11    1    1    2    0    0  0.46768093823E-01  0.10822059794E-01  0.90925092833E+00  0.91051737131E+00  0.51109989000E-03 0. -1.
     -623    1    1    2    0    0 -0.20905201533E-02 -0.42036699452E-02  0.25769708530E-02  0.25126700571E+02  0.25126700000E+02 0. -1.
     -611    1    3    3    0    0 -0.62352627246E-01 -0.13829476528E-01  0.10881023100E+02  0.10881215134E+02  0.10000000000E-01 0. -1.
      611    1    3    3    0    0  0.17675053577E-01  0.72110866785E-02  0.20714899014E+00  0.20826692346E+00  0.10000000000E-01 0.  1.
</event>
<event>
 7   0  0.6206631E-02  0.9118800E+02  0.7818608E-02  0.1180000E+00
       11   -1    0    0    0    0  0.00000000000E+00  0.00000000000E+00  0.11999999989E+02  0.12000000000E+02  0.51109989000E-03 0. -1.
     -623   -1    0    0    0    0  0.00000000000E+00  0.00000000000E+00  0.42561509872E-11  0.25126700000E+02  0.25126700000E+02 0. -1.
      622    2    1    2    0    0  0.65632071622E-02 -0.37459848642E-02  0.74089887695E+01  0.74095629562E+01  0.91932078716E-01 0.  0.
       11    1    1    2    0    0 -0.62575731071E-02  0.22847159862E-02  0.45904321306E+01  0.45904369927E+01  0.51109989000E-03 0. -1.
     -623    1    1    2    0    0 -0.30563405513E-03  0.14612688779E-02  0.57908894149E-03  0.25126700051E+02  0.25126700000E+02 0. -1.
     -611    1    3    3    0    0  0.39669563156E-01  0.13545661465E-01  0.21488851392E+01  0.21493172173E+01  0.10000000000E-01 0.  1.
      611    1    3    3    0    0 -0.33106355994E-01 -0.17291646330E-01  0.52601036303E+01  0.52602457389E+01  0.10000000000E-01 0. -1.
</event>
<event>
 7   0  0.6206631E-02  0.9118800E+02  0.7818608E-02  0.1180000E+00
       11   -1    0    0    0    0  0.00000000000E+00  0.00000000000E+00  0.11999999989E+02  0.12000000000E+02  0.51109989000E-03 0.  1.
     -623   -1    0    0    0    0  0.00000000000E+00  0.00000000000E+00  0.42561509872E-11  0.25126700000E+02  0.25126700000E+02 0.  1.
      622    2    1    2    0    0 -0.19657134050E-01 -0.17294308754E-01  0.11279239807E+02  0.11279656144E+02  0.93309161130E-01 0.  0.
       11    1    1    2    0    0  0.31285247270E-01  0.24297606722E-01  0.71924997163E+00  0.72034014417E+00  0.51109989000E-03 0.  1.
     -623    1    1    2    0    0 -0.11628113220E-01 -0.70032979689E-02  0.15102103140E-02  0.25126703712E+02  0.25126700000E+02 0.  1.
     -611    1    3    3    0    0  0.36101488902E-01 -0.10883577020E-01  0.53524243384E+01  0.53525664936E+01  0.10000000000E-01 0. -1.
      611    1    3    3    0    0 -0.55758622952E-01 -0.64107317332E-02  0.59268154687E+01  0.59270896502E+01  0.10000000000E-01 0.  1.
</event>
<event>
 7   0  0.6206631E-02  0.9118800E+02  0.7818608E-02  0.1180000E+00
       11   -1    0    0    0    0  0.00000000000E+00  0.00000000000E+00  0.11999999989E+02  0.12000000000E+02  0.51109989000E-03 0.  1.
     -623   -1    0    0    0    0  0.00000000000E+00  0.00000000000E+00  0.42561509872E-11  0.25126700000E+02  0.25126700000E+02 0. -1.
      622    2    1    2    0    0 -0.46485027350E-01 -0.18938642189E-01  0.10977213696E+02  0.10977791249E+02  0.10080006424E+00 0.  0.
       11    1    1    2    0    0  0.36458437074E-01  0.44578533874E-02  0.10215423120E+01  0.10222025467E+01  0.51109989000E-03 0.  1.
     -623    1    1    2    0    0  0.10026590276E-01  0.14480788801E-01  0.12439810401E-02  0.25126706204E+02  0.25126700000E+02 0. -1.
     -611    1    3    3    0    0 -0.15323919305E-01 -0.44703944832E-01  0.24516557650E+01  0.24521315738E+01  0.10000000000E-01 0. -1.
      611    1    3    3    0    0 -0.31161108045E-01  0.25765302643E-01  0.85255579311E+01  0.85256596755E+01  0.10000000000E-01 0.  1.
</event>
<event>
 7   0  0.6206631E-02  0.9118800E+02  0.7818608E-02  0.1180000E+00
       11   -1    0    0    0    0  0.00000000000E+00  0.00000000000E+00  0.11999999989E+02  0.12000000000E+02  0.51109989000E-03 0. -1.
     -623   -1    0    0    0    0  0.00000000000E+00  0.00000000000E+00  0.42561509872E-11  0.25126700000E+02  0.25126700000E+02 0.  1.
      622    2    1    2    0    0 -0.22233934160E-01 -0.75325030371E-01  0.95360994573E+01  0.95370059580E+01  0.10545887757E+00 0.  0.
       11    1    1    2    0    0  0.35478417961E-01  0.82137856602E-01  0.24613637823E+01  0.24629894997E+01  0.51109989000E-03 0. -1.
     -623    1    1    2    0    0 -0.13244483801E-01 -0.68128262306E-02  0.25367495002E-02  0.25126704542E+02  0.25126700000E+02 0.  1.
     -611    1    3    3    0    0  0.23289265003E-01 -0.80450205749E-01  0.64070712589E+01  0.64076264515E+01  0.10000000000E-01 0. -1.
      611    1    3    3    0    0 -0.45523199163E-01  0.51251753783E-02  0.31290281984E+01  0.31293795065E+01  0.10000000000E-01 0.  1.
</event>
<event>
 7   0  0.6206631E-02  0.9118800E+02  0.7818608E-02  0.1180000E+00
       11   -1    0    0    0    0  0.00000000000E+00  0.00000000000E+00  0.11999999989E+02  0.12000000000E+02  0.51109989000E-03 0.  1.
     -623   -1    0    0    0    0  0.00000000000E+00  0.00000000000E+00  0.42561509872E-11  0.25126700000E+02  0.25126700000E+02 0. -1.
      622    2    1    2    0    0 -0.41614710358E-02 -0.54756174210E-02  0.11202613747E+02  0.11203469579E+02  0.13830596050E+00 0.  0.
       11    1    1    2    0    0  0.10653888111E-02  0.98536536600E-03  0.79652832879E+00  0.79652981475E+00  0.51109989000E-03 0.  1.
     -623    1    1    2    0    0  0.30960822247E-02  0.44902520550E-02  0.85791350214E-03  0.25126700607E+02  0.25126700000E+02 0. -1.
     -611    1    3    3    0    0  0.37187542841E-01  0.23525158869E-01  0.14128927104E+01  0.14136131569E+01  0.10000000000E-01 0. -1.
      611    1    3    3    0    0 -0.41349013876E-01 -0.29000776290E-01  0.97897210364E+01  0.97898564217E+01  0.10000000000E-01 0.  1.
</event>
<event>
 7   0  0.6206631E-02  0.9118800E+02  0.7818608E-02  0.1180000E+00
       11   -1    0    0    0    0  0.00000000000E+00  0.00000000000E+00  0.11999999989E+02  0.12000000000E+02  0.51109989000E-03 0. -1.
     -623   -1    0    0    0    0  0.00000000000E+00  0.00000000000E+00  0.42561509872E-11  0.25126700000E+02  0.25126700000E+02 0. -1.
      622    2    1    2    0    0  0.37151610507E-02  0.76786303072E-02  0.11943572246E+02  0.11943967548E+02  0.96798846560E-01 0.  0.
       11    1    1    2    0    0 -0.17119907221E-01 -0.13208498045E-01  0.51684618766E-01  0.56027820625E-01  0.51109989000E-03 0. -1.
     -623    1    1    2    0    0  0.13404746171E-01  0.55298677380E-02  0.47431242894E-02  0.25126704632E+02  0.25126700000E+02 0. -1.
     -611    1    3    3    0    0 -0.22927458533E-03  0.49102504997E-01  0.81468715587E+01  0.81470256721E+01  0.10000000000E-01 0. -1.
      611    1    3    3    0    0  0.39444356360E-02 -0.41423874690E-01  0.37967006874E+01  0.37969418755E+01  0.10000000000E-01 0.  1.
</event>
<event>
 7   0  0.6206631E-02  0.9118800E+02  0.7818608E-02  0.1180000E+00
       11   -1    0    0    0    0  0.00000000000E+00  0.00000000000E+00  0.11999999989E+02  0.12000000000E+02  0.51109989000E-03 0. -1.
     -623   -1    0    0    0    0  0.00000000000E+00  0.00000000000E+00  0.42561509872E-11  0.25126700000E+02  0.25126700000E+02 0.  1.
      622    2    1    2    0    0 -0.22380689598E-01 -0.86216242072E-02  0.86843706920E+01  0.86850841080E+01  0.10870335622E+00 0.  0.
       11    1    1    2    0    0  0.13605924304E-01  0.19868874319E-01  0.33148243217E+01  0.33149118296E+01  0.51109989000E-03 0. -1.
     -623    1    1    2    0    0  0.87747652940E-02 -0.11247250112E-01  0.80497539692E-03  0.25126704062E+02  0.25126700000E+02 0.  1.
     -611    1    3    3    0    0 -0.61825407349E-01 -0.15106761457E-01  0.65416845185E+01  0.65420017529E+01  0.10000000000E-01 0. -1.
      611    1    3    3    0    0  0.39444717751E-01  0.64851372494E-02  0.21426861735E+01  0.21430823551E+01  0.10000000000E-01 0.  1.
</event>
<event>
 7   0  0.6206631E-02  0.9118800E+02  0.7818608E-02  0.1180000E+00
       11   -1    0    0    0    0  0.00000000000E+00  0.00000000000E+00  0.11999999989E+02  0.12000000000E+02  0.51109989000E-03 0. -1.
     -623   -1    0    0    0    0  0.00000000000E+00  0.00000000000E+00  0.42561509872E-11  0.25126700000E+02  0.25126700000E+02 0. -1.
      622    2    1    2    0    0  0.11776641423E-02  0.30479776966E-02  0.11908265916E+02  0.11908395844E+02  0.55531817886E-01 0.  0.
       11    1    1    2    0    0  0.35440275484E-02 -0.50290511699E-02  0.91395364252E-01  0.91603631570E-01  0.51109989000E-03 0. -1.
     -623    1    1    2    0    0 -0.47216916907E-02  0.19810734733E-02  0.33870881967E-03  0.25126700524E+02  0.25126700000E+02 0. -1.
     -611    1    3    3    0    0  0.19196701778E-01 -0.15915922225E-01  0.68115801652E+01  0.68116331505E+01  0.10000000000E-01 0. -1.
      611    1    3    3    0    0 -0.18019037636E-01  0.18963899922E-01  0.50966857508E+01  0.50967626939E+01  0.10000000000E-01 0.  1.
</event>
<event>
 7   0  0.6206631E-02  0.9118800E+02  0.7818608E-02  0.1180000E+00
       11   -1    0    0    0    0  0.00000000000E+00  0.00000000000E+00  0.11999999989E+02  0.12000000000E+02  0.51109989000E-03 0. -1.
     -623   -1    0    0    0    0  0.00000000000E+00  0.00000000000E+00  0.42561509872E-11  0.25126700000E+02  0.25126700000E+02 0.  1.
      622    2    1    2    0    0  0.36889733775E-01 -0.41362293671E-01  0.96887234034E+01  0.96893455214E+01  0.94782667957E-01 0.  0.
       11    1    1    2    0    0 -0.45773951186E-01  0.30216540480E-01  0.23099992926E+01  0.23106504035E+01  0.51109989000E-03 0. -1.
     -623    1    1    2    0    0  0.88842174110E-02  0.11145753191E-01  0.12772931122E-02  0.25126704075E+02  0.25126700000E+02 0.  1.
     -611    1    3    3    0    0  0.35274444723E-01  0.15941247453E-01  0.19864003570E+01  0.19868026545E+01  0.10000000000E-01 0. -1.
      611    1    3    3    0    0  0.16152890519E-02 -0.57303541124E-01  0.77023230464E+01  0.77025428669E+01  0.10000000000E-01 0.  1.
</event>
<event>
 7   0  0.6206631E-02  0.9118800E+02  0.7818608E-02  0.1180000E+00
       11   -1    0    0    0    0  0.00000000000E+00  0.00000000000E+00  0.11999999989E+02  0.12000000000E+02  0.51109989000E-03 0. -1.
     -623   -1    0    0    0    0  0.00000000000E+00  0.00000000000E+00  0.42561509872E-11  0.25126700000E+02  0.25126700000E+02 0. -1.
      622    2    1    2    0    0 -0.95578946373E-02  0.30298783801E-01  0.11576656419E+02  0.11577407566E+02  0.12799505544E+00 0.  0.
       11    1    1    2    0    0  0.25296427829E-01 -0.34697372792E-01  0.42039939305E+00  0.42258694708E+00  0.51109989000E-03 0. -1.
     -623    1    1    2    0    0 -0.15738533192E-01  0.43985889902E-02  0.29441766048E-02  0.25126705487E+02  0.25126700000E+02 0. -1.
     -611    1    3    3    0    0  0.29322207493E-01 -0.40178930090E-01  0.43284972919E+01  0.43287946295E+01  0.10000000000E-01 0. -1.
      611    1    3    3    0    0 -0.38880102130E-01  0.70477713892E-01  0.72481591275E+01  0.72486129368E+01  0.10000000000E-01 0.  1.
</event>
<event>
 7   0  0.6206631E-02  0.9118800E+02  0.7818608E-02  0.1180000E+00
       11   -1    0    0    0    0  0.00000000000E+00  0.00000000000E+00  0.11999999989E+02  0.12000000000E+02  0.51109989000E-03 0.  1.
     -623   -1    0    0    0    0  0.00000000000E+00  0.00000000000E+00  0.42561509872E-11  0.25126700000E+02  0.25126700000E+02 0. -1.
      622    2    1    2    0    0 -0.35327916517E-03 -0.15190020816E-04  0.11988482402E+02  0.11988626752E+02  0.58830020074E-01 0.  0.
       11    1    1    2    0    0  0.32065023914E-03 -0.10950075678E-03  0.11356703858E-01  0.11373247235E-01  0.51109989000E-03 0.  1.
     -623    1    1    2    0    0  0.32628926030E-04  0.12469077760E-03  0.16088336742E-03  0.25126700001E+02  0.25126700000E+02 0. -1.
     -611    1    3    3    0    0 -0.16834847890E-01 -0.95928586610E-02  0.19605631202E+01  0.19606843661E+01  0.10000000000E-01 0.  1.
      611    1    3    3    0    0  0.16481568725E-01  0.95776686401E-02  0.10027919282E+02  0.10027942386E+02  0.10000000000E-01 0.  1.
</event>
<event>
 7   0  0.6206631E-02  0.9118800E+02  0.7818608E-02  0.1180000E+00
       11   -1    0    0    0    0  0.00000000000E+00  0.00000000000E+00  0.11999999989E+02  0.12000000000E+02  0.51109989000E-03 0.  1.
     -623   -1    0    0    0    0  0.00000000000E+00  0.00000000000E+00  0.42561509872E-11  0.25126700000E+02  0.25126700000E+02 0.  1.
      622    2    1    2    0    0 -0.38743798062E-01 -0.88845739954E-02  0.11697698321E+02  0.11698233534E+02  0.10460302769E+00 0.  0.
       11    1    1    2    0    0  0.33879913115E-01  0.16666249977E-02  0.29985184778E+00  0.30176483889E+00  0.51109989000E-03 0.  1.
     -623    1    1    2    0    0  0.48638849465E-02  0.72179489977E-02  0.24498203169E-02  0.25126701627E+02  0.25126700000E+02 0.  1.
     -611    1    3    3    0    0 -0.67979120617E-01 -0.26708439859E-01  0.89517150889E+01  0.89520186290E+01  0.10000000000E-01 0.  1.
      611    1    3    3    0    0  0.29235322555E-01  0.17823865863E-01  0.27459832322E+01  0.27462149052E+01  0.10000000000E-01 0. -1.
</event>
<event>
 7   0  0.6206631E-02  0.9118800E+02  0.7818608E-02  0.1180000E+00
       11   -1    0    0    0    0  0.00000000000E+00  0.00000000000E+00  0.11999999989E+02  0.12000000000E+02  0.51109989000E-03 0.  1.
     -623   -1    0    0    0    0  0.00000000000E+00  0.00000000000E+00  0.42561509872E-11  0.25126700000E+02  0.25126700000E+02 0.  1.
      622    2    1    2    0    0 -0.86311617685E-02 -0.43693742554E-02  0.11883733791E+02  0.11884217101E+02  0.10674126710E+00 0.  0.
       11    1    1    2    0    0  0.81458701608E-02  0.55239486072E-02  0.11536263793E+00  0.11578285133E+00  0.51109989000E-03 0.  1.
     -623    1    1    2    0    0  0.48529160766E-03 -0.11545743518E-02  0.90355990098E-03  0.25126700047E+02  0.25126700000E+02 0.  1.
     -611    1    3    3    0    0  0.41231608404E-01 -0.27204579224E-01  0.48267314968E+01  0.48269946216E+01  0.10000000000E-01 0. -1.
      611    1    3    3    0    0 -0.49862770173E-01  0.22835204969E-01  0.70570022945E+01  0.70572224796E+01  0.10000000000E-01 0.  1.
</event>
<event>
 7   0  0.6206631E-02  0.9118800E+02  0.7818608E-02  0.1180000E+00
       11   -1    0    0    0    0  0.00000000000E+00  0.00000000000E+00  0.11999999989E+02  0.12000000000E+02  0.51109989000E-03 0.  1.
     -623   -1    0    0    0    0  0.00000000000E+00  0.00000000000E+00  0.42561509872E-11  0.25126700000E+02  0.25126700000E+02 0.  1.
      622    2    1    2    0    0  0.75876621764E-03  0.38067256613E-02  0.11718251314E+02  0.11718902581E+02  0.12348588718E+00 0.  0.
       11    1    1    2    0    0  0.91865217274E-03 -0.70960884757E-02  0.28100558863E+00  0.28109713705E+00  0.51109989000E-03 0.  1.
     -623    1    1    2    0    0 -0.16774183904E-02  0.32893628144E-02  0.74308624208E-03  0.25126700282E+02  0.25126700000E+02 0.  1.
     -611    1    3    3    0    0  0.55533737442E-01 -0.14562582061E-01  0.39482153480E+01  0.39486454005E+01  0.10000000000E-01 0.  1.
      611    1    3    3    0    0 -0.54774971225E-01  0.18369307722E-01  0.77700359662E+01  0.77702571801E+01  0.10000000000E-01 0. -1.
</event>
<event>
 7   0  0.6206631E-02  0.9118800E+02  0.7818608E-02  0.1180000E+00
       11   -1    0    0    0    0  0.00000000000E+00  0.00000000000E+00  0.11999999989E+02  0.12000000000E+02  0.51109989000E-03 0. -1.
     -623   -1    0    0    0    0  0.00000000000E+00  0.00000000000E+00  0.42561509872E-11  0.25126700000E+02  0.25126700000E+02 0. -1.
      622    2    1    2    0    0  0.30940767000E-02  0.47473852372E-02  0.11758372353E+02  0.11758885362E+02  0.10969258002E+00 0.  0.
       11    1    1    2    0    0 -0.13466197797E-02 -0.27889488747E-02  0.24109406241E+00  0.24111449516E+00  0.51109989000E-03 0. -1.
     -623    1    1    2    0    0 -0.17474569203E-02 -0.19584363625E-02  0.53357396534E-03  0.25126700143E+02  0.25126700000E+02 0. -1.
     -611    1    3    3    0    0 -0.39425272608E-01 -0.27400525129E-01  0.36183614771E+01  0.36186938141E+01  0.10000000000E-01 0.  1.
      611    1    3    3    0    0  0.42519349308E-01  0.32147910366E-01  0.81400108756E+01  0.81401915480E+01  0.10000000000E-01 0. -1.
</event>
<event>
 7   0  0.6206631E-02  0.9118800E+02  0.7818608E-02  0.1180000E+00
       11   -1    0    0    0    0  0.00000000000E+00  0.00000000000E+00  0.11999999989E+02  0.12000000000E+02  0.51109989000E-03 0.  1.
     -623   -1    0    0    0    0  0.00000000000E+00  0.00000000000E+00  0.42561509872E-11  0.25126700000E+02  0.25126700000E+02 0. -1.
      622    2    1    2    0    0  0.10520354510E-02 -0.25990305649E-02  0.11938115048E+02  0.11938576367E+02  0.10491376107E+00 0.  0.
       11    1    1    2    0    0  0.11629912578E-04 -0.37795342761E-02  0.61304269506E-01  0.61422794608E-01  0.51109989000E-03 0.  1.
     -623    1    1    2    0    0 -0.10636653636E-02  0.63785648410E-02  0.58067154373E-03  0.25126700839E+02  0.25126700000E+02 0. -1.
     -611    1    3    3    0    0  0.27615559344E-01 -0.28227740160E-01  0.10005870407E+02  0.10005953329E+02  0.10000000000E-01 0.  1.
      611    1    3    3    0    0 -0.26563523893E-01  0.25628709595E-01  0.19322446410E+01  0.19326230373E+01  0.10000000000E-01 0. -1.
</event>
<event>
 7   0  0.6206631E-02  0.9118800E+02  0.7818608E-02  0.1180000E+00
       11   -1    0    0    0    0  0.00000000000E+00  0.00000000000E+00  0.11999999989E+02  0.12000000000E+02  0.51109989000E-03 0. -1.
     -623   -1    0    0    0    0  0.00000000000E+00  0.00000000000E+00  0.42561509872E-11  0.25126700000E+02  0.25126700000E+02 0.  1.
      622    2    1    2    0    0 -0.20455679265E-01  0.50255860658E-01  0.46597548550E+01  0.46616252197E+01  0.12037563454E+00 0.  0.
       11    1    1    2    0    0  0.71807448642E-01 -0.78963201645E-01  0.73375295349E+01  0.73383057604E+01  0.51109989000E-03 0. -1.
     -623    1    1    2    0    0 -0.51351769377E-01  0.28707340986E-01  0.27155992154E-02  0.25126769020E+02  0.25126700000E+02 0.  1.
     -611    1    3    3    0    0  0.45104087070E-01  0.40053685327E-01  0.27821796457E+01  0.27828514616E+01  0.10000000000E-01 0. -1.
      611    1    3    3    0    0 -0.65559766335E-01  0.10202175332E-01  0.18775752093E+01  0.18787737580E+01  0.10000000000E-01 0.  1.
</event>
<event>
 7   0  0.6206631E-02  0.9118800E+02  0.7818608E-02  0.1180000E+00
       11   -1    0    0    0    0  0.00000000000E+00  0.00000000000E+00  0.11999999989E+02  0.12000000000E+02  0.51109989000E-03 0. -1.
     -623   -1    0    0    0    0  0.00000000000E+00  0.00000000000E+00  0.42561509872E-11  0.25126700000E+02  0.25126700000E+02 0. -1.
      622    2    1    2    0    0  0.28571349992E-02 -0.80561730273E-03  0.11957916526E+02  0.11958387518E+02  0.10609232528E+00 0.  0.
       11    1    1    2    0    0  0.70909695103E-02 -0.46360771367E-02  0.40735076181E-01  0.41609887219E-01  0.51109989000E-03 0. -1.
     -623    1    1    2    0    0 -0.99481045095E-02  0.54416944394E-02  0.13483871522E-02  0.25126702595E+02  0.25126700000E+02 0. -1.
     -611    1    3    3    0    0 -0.67483951352E-02  0.45095228849E-01  0.86223966413E+01  0.86225230043E+01  0.10000000000E-01 0.  1.
      611    1    3    3    0    0  0.96055301344E-02 -0.45900846152E-01  0.33355198845E+01  0.33358645137E+01  0.10000000000E-01 0. -1.
</event>
<event>
 7   0  0.6206631E-02  0.9118800E+02  0.7818608E-02  0.1180000E+00
       11   -1    0    0    0    0  0.00000000000E+00  0.00000000000E+00  0.11999999989E+02  0.12000000000E+02  0.51109989000E-03 0. -1.
     -623   -1    0    0    0    0  0.00000000000E+00  0.00000000000E+00  0.42561509872E-11  0.25126700000E+02  0.25126700000E+02 0.  1.
      622    2    1    2    0    0  0.80534239806E-02 -0.11210062397E-01  0.11177109354E+02  0.11177844059E+02  0.12741181139E+00 0.  0.
       11    1    1    2    0    0 -0.87280053673E-02  0.34153171021E-02  0.82210112810E+00  0.82215471082E+00  0.51109989000E-03 0. -1.
     -623    1    1    2    0    0  0.67458138666E-03  0.77947452950E-02  0.78950718289E-03  0.25126701230E+02  0.25126700000E+02 0.  1.
     -611    1    3    3    0    0 -0.19558550482E-01  0.21009857117E-01  0.71719138914E+00  0.71783524548E+00  0.10000000000E-01 0.  1.
      611    1    3    3    0    0  0.27611974463E-01 -0.32219919514E-01  0.10459917965E+02  0.10460008813E+02  0.10000000000E-01 0. -1.
</event>
<event>
 7   0  0.6206631E-02  0.9118800E+02  0.7818608E-02  0.1180000E+00
       11   -1    0    0    0    0  0.00000000000E+00  0.00000000000E+00  0.11999999989E+02  0.12000000000E+02  0.51109989000E-03 0. -1.
     -623   -1    0    0    0    0  0.00000000000E+00  0.00000000000E+00  0.42561509872E-11  0.25126700000E+02  0.25126700000E+02 0.  1.
      622    2    1    2    0    0  0.63243883725E-02 -0.34390309176E-02  0.11980328507E+02  0.11980825512E+02  0.10888979292E+00 0.  0.
       11    1    1    2    0    0 -0.47821738508E-03  0.54895513688E-02  0.18357704401E-01  0.19173690311E-01  0.51109989000E-03 0. -1.
     -623    1    1    2    0    0 -0.58461709874E-02 -0.20505204512E-02  0.13137780877E-02  0.25126700798E+02  0.25126700000E+02 0.  1.
     -611    1    3    3    0    0 -0.14799817726E-01 -0.25728313868E-01  0.10919188038E+01  0.10923679118E+01  0.10000000000E-01 0.  1.
      611    1    3    3    0    0  0.21124206099E-01  0.22289282951E-01  0.10888409703E+02  0.10888457600E+02  0.10000000000E-01 0. -1.
</event>
<event>
 7   0  0.6206631E-02  0.9118800E+02  0.7818608E-02  0.1180000E+00
       11   -1    0    0    0    0  0.00000000000E+00  0.00000000000E+00  0.11999999989E+02  0.12000000000E+02  0.51109989000E-03 0. -1.
     -623   -1    0    0    0    0  0.00000000000E+00  0.00000000000E+00  0.42561509872E-11  0.25126700000E+02  0.25126700000E+02 0. -1.
      622    2    1    2    0    0  0.13735338588E-01 -0.76834476602E-02  0.11707170159E+02  0.11707556787E+02  0.93835530492E-01 0.  0.
       11    1    1    2    0    0  0.10468520658E-01  0.63739517444E-02  0.29217411117E+00  0.29243151275E+00  0.51109989000E-03 0. -1.
     -623    1    1    2    0    0 -0.24203859246E-01  0.13094959158E-02  0.65571936689E-03  0.25126711700E+02  0.25126700000E+02 0. -1.
     -611    1    3    3    0    0  0.92407377409E-03 -0.32493570138E-01  0.10378132832E+02  0.10378188559E+02  0.10000000000E-01 0. -1.
      611    1    3    3    0    0  0.12811264814E-01  0.24810122478E-01  0.13290373267E+01  0.13293682283E+01  0.10000000000E-01 0.  1.
</event>
<event>
 7   0  0.6206631E-02  0.9118800E+02  0.7818608E-02  0.1180000E+00
       11   -1    0    0    0    0  0.00000000000E+00  0.00000000000E+00  0.11999999989E+02  0.12000000000E+02  0.51109989000E-03 0. -1.
     -623   -1    0    0    0    0  0.00000000000E+00  0.00000000000E+00  0.42561509872E-11  0.25126700000E+02  0.25126700000E+02 0.  1.
      622    2    1    2    0    0 -0.15458222560E-01  0.40800887054E-02  0.11733465620E+02  0.11733919291E+02  0.10193553438E+00 0.  0.
       11    1    1    2    0    0  0.19759854634E-01  0.37483771211E-02  0.26531739461E+00  0.26607909217E+00  0.51109989000E-03 0. -1.
     -623    1    1    2    0    0 -0.43016320741E-02 -0.78284658264E-02  0.12169742455E-02  0.25126701617E+02  0.25126700000E+02 0.  1.
     -611    1    3    3    0    0  0.14814557059E-01 -0.24186180532E-01  0.94982533980E+01  0.94983010088E+01  0.10000000000E-01 0. -1.
      611    1    3    3    0    0 -0.30272779619E-01  0.28266269237E-01  0.22352122223E+01  0.22356182818E+01  0.10000000000E-01 0.  1.
</event>
<event>
 7   0  0.6206631E-02  0.9118800E+02  0.7818608E-02  0.1180000E+00
       11   -1    0    0    0    0  0.00000000000E+00  0.00000000000E+00  0.11999999989E+02  0.12000000000E+02  0.51109989000E-03 0. -1.
     -623   -1    0    0    0    0  0.00000000000E+00  0.00000000000E+00  0.42561509872E-11  0.25126700000E+02  0.25126700000E+02 0. -1.
      622    2    1    2    0    0 -0.57313762806E-01 -0.13372442237E-01  0.11579745676E+02  0.11580478782E+02  0.11625486150E+00 0.  0.
       11    1    1    2    0    0  0.62526054816E-01 -0.93036582629E-03  0.41482894987E+00  0.41951602113E+00  0.51109989000E-03 0. -1.
     -623    1    1    2    0    0 -0.52122920095E-02  0.14302808064E-01  0.54253627606E-02  0.25126705197E+02  0.25126700000E+02 0. -1.
     -611    1    3    3    0    0 -0.78701596316E-03 -0.30013225151E-01  0.88418147163E+00  0.88474758425E+00  0.10000000000E-01 0.  1.
      611    1    3    3    0    0 -0.56526746843E-01  0.16640782914E-01  0.10695564205E+02  0.10695731197E+02  0.10000000000E-01 0. -1.
</event>
<event>
 7   0  0.6206631E-02  0.9118800E+02  0.7818608E-02  0.1180000E+00
       11   -1    0    0    0    0  0.00000000000E+00  0.00000000000E+00  0.11999999989E+02  0.12000000000E+02  0.51109989000E-03 0.  1.
     -623   -1    0    0    0    0  0.00000000000E+00  0.00000000000E+00  0.42561509872E-11  0.25126700000E+02  0.25126700000E+02 0. -1.
      622    2    1    2    0    0 -0.12470976947E-01  0.17639640982E-02  0.11380724366E+02  0.11381595925E+02  0.14028564929E+00 0.  0.
       11    1    1    2    0    0  0.43001688991E-02  0.56934311335E-03  0.61838719813E+00  0.61840262260E+00  0.51109989000E-03 0.  1.
     -623    1    1    2    0    0  0.81708080479E-02 -0.23333072116E-02  0.88842492836E-03  0.25126701453E+02  0.25126700000E+02 0. -1.
     -611    1    3    3    0    0  0.25227556946E-01  0.64533777537E-02  0.48544710806E+00  0.48624784877E+00  0.10000000000E-01 0. -1.
      611    1    3    3    0    0 -0.37698533893E-01 -0.46894136555E-02  0.10895277258E+02  0.10895348076E+02  0.10000000000E-01 0.  1.
</event>
<event>
 7   0  0.6206631E-02  0.9118800E+02  0.7818608E-02  0.1180000E+00
       11   -1    0    0    0    0  0.00000000000E+00  0.00000000000E+00  0.11999999989E+02  0.12000000000E+02  0.51109989000E-03 0.  1.
     -623   -1    0    0    0    0  0.00000000000E+00  0.00000000000E+00  0.42561509872E-11  0.25126700000E+02  0.25126700000E+02 0. -1.
      622    2    1    2    0    0 -0.72270993135E-03 -0.18903707322E-02  0.11980703663E+02  0.11980770324E+02  0.39914938973E-01 0.  0.
       11    1    1    2    0    0 -0.21648714690E-02  0.24574638533E-02  0.18941665189E-01  0.19229500783E-01  0.51109989000E-03 0.  1.
     -623    1    1    2    0    0  0.28875814004E-02 -0.56709312111E-03  0.35466063554E-03  0.25126700175E+02  0.25126700000E+02 0. -1.
     -611    1    3    3    0    0 -0.10487647025E-02 -0.17434734453E-01  0.46832339743E+01  0.46832772210E+01  0.10000000000E-01 0.  1.
      611    1    3    3    0    0  0.32605477113E-03  0.15544363721E-01  0.72974696891E+01  0.72974931035E+01  0.10000000000E-01 0.  1.
</event>
<event>
 7   0  0.6206631E-02  0.9118800E+02  0.7818608E-02  0.1180000E+00
       11   -1    0    0    0    0  0.00000000000E+00  0.00000000000E+00  0.11999999989E+02  0.12000000000E+02  0.51109989000E-03 0.  1.
     -623   -1    0    0    0    0  0.00000000000E+00  0.00000000000E+00  0.42561509872E-11  0.25126700000E+02  0.25126700000E+02 0.  1.
      622    2    1    2    0    0  0.33350267706E-01  0.20938192984E-02  0.10653786403E+02  0.10654257224E+02  0.94422649581E-01 0.  0.
       11    1    1    2    0    0 -0.32788030640E-01 -0.13073744014E-02  0.13453425231E+01  0.13457427428E+01  0.51109989000E-03 0.  1.
     -623    1    1    2    0    0 -0.56223706546E-03 -0.78644489703E-03  0.87106292063E-03  0.25126700034E+02  0.25126700000E+02 0.  1.
     -611    1    3    3    0    0  0.30091131430E-01 -0.32914910079E-01  0.26998386815E+01  0.27002255042E+01  0.10000000000E-01 0. -1.
      611    1    3    3    0    0  0.32591362756E-02  0.35008729377E-01  0.79539477217E+01  0.79540317193E+01  0.10000000000E-01 0.  1.
</event>
<event>
 7   0  0.6206631E-02  0.9118800E+02  0.7818608E-02  0.1180000E+00
       11   -1    0    0    0    0  0.00000000000E+00  0.00000000000E+00  0.11999999989E+02  0.12000000000E+02  0.51109989000E-03 0.  1.
     -623   -1    0    0    0    0  0.00000000000E+00  0.00000000000E+00  0.42561509872E-11  0.25126700000E+02  0.25126700000E+02 0. -1.
      622    2    1    2    0    0  0.40366093874E-01 -0.62459286950E-01  0.62394077178E+01  0.62406429198E+01  0.99422328721E-01 0.  0.
       11    1    1    2    0    0 -0.39883248151E-01  0.62079199129E-01  0.57588843069E+01  0.57593570146E+01  0.51109989000E-03 0.  1.
     -623    1    1    2    0    0 -0.48284572390E-03  0.38008782069E-03  0.17079644095E-02  0.25126700066E+02  0.25126700000E+02 0. -1.
     -611    1    3    3    0    0  0.40111989296E-01 -0.81881062027E-01  0.57679767318E+01  0.57687060125E+01  0.10000000000E-01 0. -1.
      611    1    3    3    0    0  0.25410457851E-03  0.19421775077E-01  0.47143098603E+00  0.47193690734E+00  0.10000000000E-01 0.  1.
</event>
<event>
 7   0  0.6206631E-02  0.9118800E+02  0.7818608E-02  0.1180000E+00
       11   -1    0    0    0    0  0.00000000000E+00  0.00000000000E+00  0.11999999989E+02  0.12000000000E+02  0.51109989000E-03 0.  1.
     -623   -1    0    0    0    0  0.00000000000E+00  0.00000000000E+00  0.42561509872E-11  0.25126700000E+02  0.25126700000E+02 0.  1.
      622    2    1    2    0    0 -0.37395395096E-02 -0.84488474873E-02  0.11653400552E+02  0.11653729344E+02  0.87050770680E-01 0.  0.
       11    1    1    2    0    0  0.83675152070E-02  0.92813072750E-02  0.34604427304E+00  0.34627020967E+00  0.51109989000E-03 0.  1.
     -623    1    1    2    0    0 -0.46279756974E-02 -0.83245978765E-03  0.55516413004E-03  0.25126700446E+02  0.25126700000E+02 0.  1.
     -611    1    3    3    0    0 -0.24412718127E-02 -0.37424435371E-01  0.27285283018E+01  0.27288043612E+01  0.10000000000E-01 0. -1.
      611    1    3    3    0    0 -0.12982676970E-02  0.28975587884E-01  0.89248722501E+01  0.89249249830E+01  0.10000000000E-01 0.  1.
</event>
<event>
 7   0  0.6206631E-02  0.9118800E+02  0.7818608E-02  0.1180000E+00
       11   -1    0    0    0    0  0.00000000000E+00  0.00000000000E+00  0.11999999989E+02  0.12000000000E+02  0.51109989000E-03 0. -1.
     -623   -1    0    0    0    0  0.00000000000E+00  0.00000000000E+00  0.42561509872E-11  0.25126700000E+02  0.25126700000E+02 0. -1.
      622    2    1    2    0    0 -0.51061426821E-01 -0.62912096105E-02  0.57683288175E+01  0.57692219585E+01  0.87508918135E-01 0.  0.
       11    1    1    2    0    0  0.58236602620E-01  0.59740508198E-02  0.62305019396E+01  0.62307769878E+01  0.51109989000E-03 0. -1.
     -623    1    1    2    0    0 -0.71751757988E-02  0.31715879078E-03  0.11692319786E-02  0.25126701054E+02  0.25126700000E+02 0. -1.
     -611    1    3    3    0    0  0.14703006916E-01  0.12395266827E-02  0.31074889815E+01  0.31075401019E+01  0.10000000000E-01 0. -1.
      611    1    3    3    0    0 -0.65764433738E-01 -0.75307362932E-02  0.26608398360E+01  0.26616818566E+01  0.10000000000E-01 0.  1.
</event>
<event>
 7   0  0.6206631E-02  0.9118800E+02  0.7818608E-02  0.1180000E+00
       11   -1    0    0    0    0  0.00000000000E+00  0.00000000000E+00  0.11999999989E+02  0.12000000000E+02  0.51109989000E-03 0. -1.
     -623   -1    0    0    0    0  0.00000000000E+00  0.00000000000E+00  0.42561509872E-11  0.25126700000E+02  0.25126700000E+02 0. -1.
      622    2    1    2    0    0  0.12228228068E-01  0.19902143464E-02  0.11751731821E+02  0.11752480548E+02  0.13207858068E+00 0.  0.
       11    1    1    2    0    0 -0.45748212339E-02  0.28741055123E-02  0.24745830284E+00  0.24751780207E+00  0.51109989000E-03 0. -1.
     -623    1    1    2    0    0 -0.76534068338E-02 -0.48643198587E-02  0.80986498049E-03  0.25126701649E+02  0.25126700000E+02 0. -1.
     -611    1    3    3    0    0 -0.25874385502E-01  0.32912804372E-01  0.14779281355E+01  0.14785548046E+01  0.10000000000E-01 0.  1.
      611    1    3    3    0    0  0.38102613570E-01 -0.30922590025E-01  0.10273803686E+02  0.10273925744E+02  0.10000000000E-01 0. -1.
</event>
<event>
 7   0  0.6206631E-02  0.9118800E+02  0.7818608E-02  0.1180000E+00
       11   -1    0    0    0    0  0.00000000000E+00  0.00000000000E+00  0.11999999989E+02  0.12000000000E+02  0.51109989000E-03 0. -1.
     -623   -1    0    0    0    0  0.00000000000E+00  0.00000000000E+00  0.42561509872E-11  0.25126700000E+02  0.25126700000E+02 0.  1.
      622    2    1    2    0    0 -0.10070490480E-01 -0.24035575623E-01  0.10037631781E+02  0.10038536187E+02  0.13220391285E+00 0.  0.
       11    1    1    2    0    0  0.81523684091E-02  0.22385639514E-01  0.19613189097E+01  0.19614636639E+01  0.51109989000E-03 0. -1.
     -623    1    1    2    0    0  0.19181220707E-02  0.16499361092E-02  0.10492981730E-02  0.25126700149E+02  0.25126700000E+02 0.  1.
     -611    1    3    3    0    0 -0.16350095306E-02 -0.41816190220E-01  0.97369848751E+01  0.97370799383E+01  0.10000000000E-01 0. -1.
      611    1    3    3    0    0 -0.84354809492E-02  0.17780614597E-01  0.30064690610E+00  0.30145624847E+00  0.10000000000E-01 0.  1.
</event>
<event>
 7   0  0.6206631E-02  0.9118800E+02  0.7818608E-02  0.1180000E+00
       11   -1    0    0    0    0  0.00000000000E+00  0.00000000000E+00  0.11999999989E+02  0.12000000000E+02  0.51109989000E-03 0. -1.
     -623   -1    0    0    0    0  0.00000000000E+00  0.00000000000E+00  0.42561509872E-11  0.25126700000E+02  0.25126700000E+02 0. -1.
      622    2    1    2    0    0 -0.62897797566E-02  0.10366647096E-01  0.11922465814E+02  0.11922988940E+02  0.11102763583E+00 0.  0.
       11    1    1    2    0    0  0.10835255004E-01 -0.84474327903E-02  0.75773321141E-01  0.77010514162E-01  0.51109989000E-03 0. -1.
     -623    1    1    2    0    0 -0.45454752472E-02 -0.19192143060E-02  0.17608537460E-02  0.25126700546E+02  0.25126700000E+02 0. -1.
     -611    1    3    3    0    0  0.78883466026E-02  0.51652975315E-01  0.35023098360E+01  0.35027138683E+01  0.10000000000E-01 0.  1.
      611    1    3    3    0    0 -0.14178126359E-01 -0.41286328219E-01  0.84201559782E+01  0.84202750714E+01  0.10000000000E-01 0. -1.
</event>
<event>
 7   0  0.6206631E-02  0.9118800E+02  0.7818608E-02  0.1180000E+00
       11   -1    0    0    0    0  0.00000000000E+00  0.00000000000E+00  0.11999999989E+02  0.12000000000E+02  0.51109989000E-03 0. -1.
     -623   -1    0    0    0    0  0.00000000000E+00  0.00000000000E+00  0.42561509872E-11  0.25126700000E+02  0.25126700000E+02 0. -1.
      622    2    1    2    0    0 -0.45468527514E-02 -0.83041298779E-03  0.11983413610E+02  0.11983885940E+02  0.10629732740E+00 0.  0.
       11    1    1    2    0    0  0.44019919377E-02 -0.59737644376E-03  0.15481124000E-01  0.16113994387E-01  0.51109989000E-03 0. -1.
     -623    1    1    2    0    0  0.14486081365E-03  0.14277894315E-02  0.11052552443E-02  0.25126700065E+02  0.25126700000E+02 0. -1.
     -611    1    3    3    0    0 -0.46995949358E-01  0.20674247641E-01  0.42937724075E+01  0.42940910017E+01  0.10000000000E-01 0. -1.
      611    1    3    3    0    0  0.42449096607E-01 -0.21504660629E-01  0.76896412024E+01  0.76897949386E+01  0.10000000000E-01 0.  1.
</event>
<event>
 7   0  0.6206631E-02  0.9118800E+02  0.7818608E-02  0.1180000E+00
       11   -1    0    0    0    0  0.00000000000E+00  0.00000000000E+00  0.11999999989E+02  0.12000000000E+02  0.51109989000E-03 0. -1.
     -623   -1    0    0    0    0  0.00000000000E+00  0.00000000000E+00  0.42561509872E-11  0.25126700000E+02  0.25126700000E+02 0. -1.
      622    2    1    2    0    0 -0.86901481555E-03  0.94311171674E-03  0.11978553137E+02  0.11978736185E+02  0.66209455832E-01 0.  0.
       11    1    1    2    0    0 -0.18480679915E-02 -0.17474817207E-02  0.21104801555E-01  0.21263652542E-01  0.51109989000E-03 0. -1.
     -623    1    1    2    0    0  0.27170828071E-02  0.80437000397E-03  0.34205033366E-03  0.25126700162E+02  0.25126700000E+02 0. -1.
     -611    1    3    3    0    0  0.15095777363E-01 -0.83353967314E-02  0.10637257825E+02  0.10637276503E+02  0.10000000000E-01 0. -1.
      611    1    3    3    0    0 -0.15964792179E-01  0.92785084481E-02  0.13412953119E+01  0.13414596823E+01  0.10000000000E-01 0.  1.
</event>
<event>
 7   0  0.6206631E-02  0.9118800E+02  0.7818608E-02  0.1180000E+00
       11   -1    0    0    0    0  0.00000000000E+00  0.00000000000E+00  0.11999999989E+02  0.12000000000E+02  0.51109989000E-03 0.  1.
     -623   -1    0    0    0    0  0.00000000000E+00  0.00000000000E+00  0.42561509872E-11  0.25126700000E+02  0.25126700000E+02 0. -1.
      622    2    1    2    0    0 -0.81320395118E-02  0.96781114598E-03  0.11375087197E+02  0.11375327521E+02  0.73487416540E-01 0.  0.
       11    1    1    2    0    0  0.70262357625E-02  0.97722133911E-03  0.62463188771E+00  0.62467237759E+00  0.51109989000E-03 0.  1.
     -623    1    1    2    0    0  0.11058037494E-02 -0.19450324851E-02  0.28090402333E-03  0.25126700101E+02  0.25126700000E+02 0. -1.
     -611    1    3    3    0    0  0.26646628687E-01 -0.17400600445E-01  0.51086292485E+01  0.51087381634E+01  0.10000000000E-01 0. -1.
      611    1    3    3    0    0 -0.34778668199E-01  0.18368411591E-01  0.62664579488E+01  0.62665893577E+01  0.10000000000E-01 0.  1.
</event>
<event>
 7   0  0.6206631E-02  0.9118800E+02  0.7818608E-02  0.1180000E+00
       11   -1    0    0    0    0  0.00000000000E+00  0.00000000000E+00  0.11999999989E+02  0.12000000000E+02  0.51109989000E-03 0. -1.
     -623   -1    0    0    0    0  0.00000000000E+00  0.00000000000E+00  0.42561509872E-11  0.25126700000E+02  0.25126700000E+02 0.  1.
      622    2    1    2    0    0 -0.46453484989E-01  0.42358518401E-01  0.68311147235E+01  0.68322210488E+01  0.10565946552E+00 0.  0.
       11    1    1    2    0    0  0.47627093912E-01 -0.45798471399E-01  0.51673561896E+01  0.51677786418E+01  0.51109989000E-03 0. -1.
     -623    1    1    2    0    0 -0.11736089233E-02  0.34399529978E-02  0.15290760303E-02  0.25126700309E+02  0.25126700000E+02 0.  1.
     -611    1    3    3    0    0 -0.49296341519E-01 -0.23380931296E-01  0.26939250886E+01  0.26944960902E+01  0.10000000000E-01 0. -1.
      611    1    3    3    0    0  0.28428565307E-02  0.65739449697E-01  0.41371896349E+01  0.41377249585E+01  0.10000000000E-01 0.  1.
</event>
<event>
 7   0  0.6206631E-02  0.9118800E+02  0.7818608E-02  0.1180000E+00
       11   -1    0    0    0    0  0.00000000000E+00  0.00000000000E+00  0.11999999989E+02  0.12000000000E+02  0.51109989000E-03 0.  1.
     -623   -1    0    0    0    0  0.00000000000E+00  0.00000000000E+00  0.42561509872E-11  0.25126700000E+02  0.25126700000E+02 0.  1.
      622    2    1    2    0    0  0.51220568107E-02 -0.51222037379E-02  0.11960237353E+02  0.11960965429E+02  0.13177243200E+00 0.  0.
       11    1    1    2    0    0 -0.50520256508E-02  0.63519646816E-02  0.38178001923E-01  0.39034490806E-01  0.51109989000E-03 0.  1.
     -623    1    1    2    0    0 -0.70031159892E-04 -0.12297609437E-02  0.15846338545E-02  0.25126700080E+02  0.25126700000E+02 0.  1.
     -611    1    3    3    0    0 -0.62375425380E-01  0.25779604783E-02  0.59410539379E+01  0.59413903451E+01  0.10000000000E-01 0. -1.
      611    1    3    3    0    0  0.67497482190E-01 -0.77001642162E-02  0.60191834154E+01  0.60195750839E+01  0.10000000000E-01 0.  1.
</event>
<event>
 7   0  0.6206631E-02  0.9118800E+02  0.7818608E-02  0.1180000E+00
       11   -1    0    0    0    0  0.00000000000E+00  0.00000000000E+00  0.11999999989E+02  0.12000000000E+02  0.51109989000E-03 0. -1.
     -623   -1    0    0    0    0  0.00000000000E+00  0.00000000000E+00  0.42561509872E-11  0.25126700000E+02  0.25126700000E+02 0.  1.
      622    2    1    2    0    0  0.26447372280E-01  0.16508850178E-01  0.11415977717E+02  0.11416444427E+02  0.98407883410E-01 0.  0.
       11    1    1    2    0    0 -0.24746487288E-01 -0.17083062221E-01  0.58277998906E+00  0.58355547853E+00  0.51109989000E-03 0. -1.
     -623    1    1    2    0    0 -0.17008849921E-02  0.57421204291E-03  0.12422833138E-02  0.25126700095E+02  0.25126700000E+02 0.  1.
     -611    1    3    3    0    0  0.17338251448E-01 -0.40189014398E-01  0.48063891715E+01  0.48065988640E+01  0.10000000000E-01 0.  1.
      611    1    3    3    0    0  0.91091208322E-02  0.56697864576E-01  0.66095885453E+01  0.66098455626E+01  0.10000000000E-01 0. -1.
</event>
<event>
 7   0  0.6206631E-02  0.9118800E+02  0.7818608E-02  0.1180000E+00
       11   -1    0    0    0    0  0.00000000000E+00  0.00000000000E+00  0.11999999989E+02  0.12000000000E+02  0.51109989000E-03 0.  1.
     -623   -1    0    0    0    0  0.00000000000E+00  0.00000000000E+00  0.42561509872E-11  0.25126700000E+02  0.25126700000E+02 0.  1.
      622    2    1    2    0    0 -0.35469697878E-03  0.62880483510E-02  0.11879643052E+02  0.11879691427E+02  0.33311992104E-01 0.  0.
       11    1    1    2    0    0  0.26019539080E-02 -0.67329157078E-02  0.12009064780E+00  0.12030846699E+00  0.51109989000E-03 0.  1.
     -623    1    1    2    0    0 -0.22472569292E-02  0.44486735685E-03  0.26628900363E-03  0.25126700106E+02  0.25126700000E+02 0.  1.
     -611    1    3    3    0    0 -0.10608418174E-01  0.94445406447E-02  0.44507214354E+01  0.44507553329E+01  0.10000000000E-01 0. -1.
      611    1    3    3    0    0  0.10253721196E-01 -0.31564922937E-02  0.74289216171E+01  0.74289360944E+01  0.10000000000E-01 0.  1.
</event>
<event>
 7   0  0.6206631E-02  0.9118800E+02  0.7818608E-02  0.1180000E+00
       11   -1    0    0    0    0  0.00000000000E+00  0.00000000000E+00  0.11999999989E+02  0.12000000000E+02  0.51109989000E-03 0. -1.
     -623   -1    0    0    0    0  0.00000000000E+00  0.00000000000E+00  0.42561509872E-11  0.25126700000E+02  0.25126700000E+02 0.  1.
      622    2    1    2    0    0  0.54914185360E-02  0.16216389296E-03  0.11805264519E+02  0.11805844960E+02  0.11693871009E+00 0.  0.
       11    1    1    2    0    0  0.47151805859E-02 -0.23236649402E-01  0.19268832967E+00  0.19414228910E+00  0.51109989000E-03 0. -1.
     -623    1    1    2    0    0 -0.10206599122E-01  0.23074485509E-01  0.20471403585E-02  0.25126712751E+02  0.25126700000E+02 0.  1.
     -611    1    3    3    0    0 -0.23589338071E-01 -0.41351284682E-01  0.88146923515E+01  0.88148265801E+01  0.10000000000E-01 0.  1.
      611    1    3    3    0    0  0.29080756607E-01  0.41513448575E-01  0.29905721676E+01  0.29910183795E+01  0.10000000000E-01 0. -1.
</event>
<event>
 7   0  0.6206631E-02  0.9118800E+02  0.7818608E-02  0.1180000E+00
       11   -1    0    0    0    0  0.00000000000E+00  0.00000000000E+00  0.11999999989E+02  0.12000000000E+02  0.51109989000E-03 0.  1.
     -623   -1    0    0    0    0  0.00000000000E+00  0.00000000000E+00  0.42561509872E-11  0.25126700000E+02  0.25126700000E+02 0. -1.
      622    2    1    2    0    0  0.41070322746E-02 -0.19873735022E-02  0.11947404444E+02  0.11947728284E+02  0.87848747843E-01 0.  0.
       11    1    1    2    0    0 -0.37772240745E-02  0.33815764944E-02  0.52022721873E-01  0.52271668191E-01  0.51109989000E-03 0.  1.
     -623    1    1    2    0    0 -0.32980820006E-03 -0.13942029922E-02  0.57282365268E-03  0.25126700047E+02  0.25126700000E+02 0. -1.
     -611    1    3    3    0    0  0.30479737122E-01  0.25145962081E-01  0.85728485767E+01  0.85729454713E+01  0.10000000000E-01 0.  1.
      611    1    3    3    0    0 -0.26372704848E-01 -0.27133335583E-01  0.33745558669E+01  0.33747828132E+01  0.10000000000E-01 0. -1.
</event>
<event>
 6   0  0.6206631E-02  0.9118800E+02  0.7818608E-02  0.1180000E+00
       11   -1    0    0    0    0  0.00000000000E+00  0.00000000000E+00  0.11999999989E+02  0.12000000000E+02  0.51109989000E-03 0. -1.
     -623   -1    0    0    0    0  0.00000000000E+00  0.00000000000E+00  0.42561509872E-11  0.25126700000E+02  0.25126700000E+02 0. -1.
       11    1    1    2    0    0 -0.32149780225E-01  0.46424516580E-01  0.41305005519E+00  0.41689261618E+00  0.51109989000E-03 0. -1.
     -623    1    1    2    0    0 -0.15435185304E-01 -0.28041928678E-02  0.87284924553E-02  0.25126706413E+02  0.25126700000E+02 0. -1.
     -611    1    1    2    0    0 -0.57230022593E-03 -0.93240765945E-01  0.11035806382E+02  0.11036204813E+02  0.10000000000E-01 0. -1.
      611    1    1    2    0    0  0.48157265755E-01  0.49620442233E-01  0.54241505909E+00  0.54689615729E+00  0.10000000000E-01 0.  1.
</event>
<event>
 7   0  0.6206631E-02  0.9118800E+02  0.7818608E-02  0.1180000E+00
       11   -1    0    0    0    0  0.00000000000E+00  0.00000000000E+00  0.11999999989E+02  0.12000000000E+02  0.51109989000E-03 0.  1.
     -623   -1    0    0    0    0  0.00000000000E+00  0.00000000000E+00  0.42561509872E-11  0.25126700000E+02  0.25126700000E+02 0. -1.
      622    2    1    2    0    0 -0.25297004057E-01 -0.12571989476E-01  0.10279113306E+02  0.10279781532E+02  0.11375406579E+00 0.  0.
       11    1    1    2    0    0  0.22537822619E-01  0.10121602533E-01  0.17200406783E+01  0.17202181828E+01  0.51109989000E-03 0.  1.
     -623    1    1    2    0    0  0.27591814380E-02  0.24503869424E-02  0.84600450947E-03  0.25126700285E+02  0.25126700000E+02 0. -1.
     -611    1    3    3    0    0 -0.12259360214E-01 -0.16407092196E-02  0.99823847307E+01  0.99823974022E+01  0.10000000000E-01 0.  1.
      611    1    3    3    0    0 -0.13037643842E-01 -0.10931280256E-01  0.29672857554E+00  0.29738412969E+00  0.10000000000E-01 0. -1.
</event>
<event>
 7   0  0.6206631E-02  0.9118800E+02  0.7818608E-02  0.1180000E+00
       11   -1    0    0    0    0  0.00000000000E+00  0.00000000000E+00  0.11999999989E+02  0.12000000000E+02  0.51109989000E-03 0.  1.
     -623   -1    0    0    0    0  0.00000000000E+00  0.00000000000E+00  0.42561509872E-11  0.25126700000E+02  0.25126700000E+02 0. -1.
      622    2    1    2    0    0  0.98500356827E-02  0.54396522808E-02  0.11789901770E+02  0.11790496419E+02  0.11787903183E+00 0.  0.
       11    1    1    2    0    0  0.11251217312E-02 -0.35371455715E-02  0.20946759638E+00  0.20950110371E+00  0.51109989000E-03 0.  1.
     -623    1    1    2    0    0 -0.10975157414E-01 -0.19025067093E-02  0.63062312320E-03  0.25126702477E+02  0.25126700000E+02 0. -1.
     -611    1    3    3    0    0  0.42342423775E-01  0.47340914732E-01  0.61034662879E+01  0.61038049420E+01  0.10000000000E-01 0.  1.
      611    1    3    3    0    0 -0.32492388092E-01 -0.41901262452E-01  0.56864354817E+01  0.56866914774E+01  0.10000000000E-01 0. -1.
</event>
<event>
 7   0  0.6206631E-02  0.9118800E+02  0.7818608E-02  0.1180000E+00
       11   -1    0    0    0    0  0.00000000000E+00  0.00000000000E+00  0.11999999989E+02  0.12000000000E+02  0.51109989000E-03 0. -1.
     -623   -1    0    0    0    0  0.00000000000E+00  0.00000000000E+00  0.42561509872E-11  0.25126700000E+02  0.25126700000E+02 0. -1.
      622    2    1    2    0    0  0.33876130593E-03  0.54885167277E-02  0.11943206128E+02  0.11943726901E+02  0.11139756961E+00 0.  0.
       11    1    1    2    0    0 -0.49210897829E-02 -0.28279878486E-02  0.55983225049E-01  0.56272527488E-01  0.51109989000E-03 0. -1.
     -623    1    1    2    0    0  0.45823284770E-02 -0.26605288791E-02  0.81063579614E-03  0.25126700572E+02  0.25126700000E+02 0. -1.
     -611    1    3    3    0    0  0.35306961616E-01  0.32870491626E-01  0.29965635541E+01  0.29969684991E+01  0.10000000000E-01 0. -1.
      611    1    3    3    0    0 -0.34968200310E-01 -0.27381974899E-01  0.89466425742E+01  0.89467584017E+01  0.10000000000E-01 0.  1.
</event>
<event>
 7   0  0.6206631E-02  0.9118800E+02  0.7818608E-02  0.1180000E+00
       11   -1    0    0    0    0  0.00000000000E+00  0.00000000000E+00  0.11999999989E+02  0.12000000000E+02  0.51109989000E-03 0.  1.
     -623   -1    0    0    0    0  0.00000000000E+00  0.00000000000E+00  0.42561509872E-11  0.25126700000E+02  0.25126700000E+02 0.  1.
      622    2    1    2    0    0 -0.19183235620E-02  0.16893761274E-01  0.11837724833E+02  0.11838139610E+02  0.97627527522E-01 0.  0.
       11    1    1    2    0    0  0.26086158290E-03 -0.17158535333E-01  0.16094723232E+00  0.16186029840E+00  0.51109989000E-03 0.  1.
     -623    1    1    2    0    0  0.16574619791E-02  0.26477405902E-03  0.13279237415E-02  0.25126700091E+02  0.25126700000E+02 0.  1.
     -611    1    3    3    0    0  0.44345914019E-01 -0.34318955334E-04  0.41129523332E+01  0.41132035515E+01  0.10000000000E-01 0. -1.
      611    1    3    3    0    0 -0.46264237581E-01  0.16928080229E-01  0.77247724998E+01  0.77249360589E+01  0.10000000000E-01 0.  1.
</event>
<event>
 7   0  0.6206631E-02  0.9118800E+02  0.7818608E-02  0.1180000E+00
       11   -1    0    0    0    0  0.00000000000E+00  0.00000000000E+00  0.11999999989E+02  0.12000000000E+02  0.51109989000E-03 0. -1.
     -623   -1    0    0    0    0  0.00000000000E+00  0.00000000000E+00  0.42561509872E-11  0.25126700000E+02  0.25126700000E+02 0.  1.
      622    2    1    2    0    0  0.37358738840E-01  0.37762817584E-01  0.11629114119E+02  0.11629824050E+02  0.11700656962E+00 0.  0.
       11    1    1    2    0    0 -0.31288041092E-01 -0.41445429813E-01  0.36651368733E+00  0.37017456610E+00  0.51109989000E-03 0. -1.
     -623    1    1    2    0    0 -0.60706977478E-02  0.36826122290E-02  0.43721825826E-02  0.25126701384E+02  0.25126700000E+02 0.  1.
     -611    1    3    3    0    0  0.24167171793E-01  0.21409520201E-01  0.83371911488E+00  0.83440396827E+00  0.10000000000E-01 0.  1.
      611    1    3    3    0    0  0.13191567047E-01  0.16353297384E-01  0.10795395004E+02  0.10795420082E+02  0.10000000000E-01 0. -1.
</event>
<event>
 7   0  0.6206631E-02  0.9118800E+02  0.7818608E-02  0.1180000E+00
       11   -1    0    0    0    0  0.00000000000E+00  0.00000000000E+00  0.11999999989E+02  0.12000000000E+02  0.51109989000E-03 0.  1.
     -623   -1    0    0    0    0  0.00000000000E+00  0.00000000000E+00  0.42561509872E-11  0.25126700000E+02  0.25126700000E+02 0. -1.
      622    2    1    2    0    0 -0.42996628987E-01 -0.12525330424E-01  0.11570725650E+02  0.11571152924E+02  0.88782408279E-01 0.  0.
       11    1    1    2    0    0  0.42215417891E-01  0.14400730293E-01  0.42652061051E+00  0.42884684324E+00  0.51109989000E-03 0.  1.
     -623    1    1    2    0    0  0.78121109632E-03 -0.18753998685E-02  0.27537283122E-02  0.25126700233E+02  0.25126700000E+02 0. -1.
     -611    1    3    3    0    0 -0.36818578080E-02 -0.41462664481E-01  0.33076873538E+01  0.33079643800E+01  0.10000000000E-01 0. -1.
      611    1    3    3    0    0 -0.39314771179E-01  0.28937334057E-01  0.82630382964E+01  0.82631885437E+01  0.10000000000E-01 0.  1.
</event>
<event>
 7   0  0.6206631E-02  0.9118800E+02  0.7818608E-02  0.1180000E+00
       11   -1    0    0    0    0  0.00000000000E+00  0.00000000000E+00  0.11999999989E+02  0.12000000000E+02  0.51109989000E-03 0.  1.
     -623   -1    0    0    0    0  0.00000000000E+00  0.00000000000E+00  0.42561509872E-11  0.25126700000E+02  0.25126700000E+02 0.  1.
      622    2    1    2    0    0 -0.31044300761E-02  0.25354851004E+00  0.29708340874E+01  0.29831611506E+01  0.95387584280E-01 0.  0.
       11    1    1    2    0    0 -0.10053664829E+00 -0.25583240879E+00  0.90124285168E+01  0.90166194258E+01  0.51109989000E-03 0.  1.
     -623    1    1    2    0    0  0.10364107837E+00  0.22838987486E-02  0.16737384973E-01  0.25126919424E+02  0.25126700000E+02 0.  1.
     -611    1    3    3    0    0  0.10068629637E-01  0.24917847597E+00  0.28749461630E+01  0.28857592987E+01  0.10000000000E-01 0. -1.
      611    1    3    3    0    0 -0.13173059713E-01  0.43700340765E-02  0.95887924401E-01  0.97401851861E-01  0.10000000000E-01 0. -1.
</event>
<event>
 7   0  0.6206631E-02  0.9118800E+02  0.7818608E-02  0.1180000E+00
       11   -1    0    0    0    0  0.00000000000E+00  0.00000000000E+00  0.11999999989E+02  0.12000000000E+02  0.51109989000E-03 0. -1.
     -623   -1    0    0    0    0  0.00000000000E+00  0.00000000000E+00  0.42561509872E-11  0.25126700000E+02  0.25126700000E+02 0. -1.
      622    2    1    2    0    0 -0.30307188904E-01  0.43195306051E-01  0.10025646615E+02  0.10026408831E+02  0.11180179777E+00 0.  0.
       11    1    1    2    0    0 -0.49344314362E-01 -0.70758465992E-01  0.19715632461E+01  0.19734496489E+01  0.51109989000E-03 0. -1.
     -623    1    1    2    0    0  0.79651503266E-01  0.27563159941E-01  0.27901279497E-02  0.25126841520E+02  0.25126700000E+02 0. -1.
     -611    1    3    3    0    0 -0.55918071757E-01  0.21077634776E-01  0.89064787335E+01  0.89066848225E+01  0.10000000000E-01 0. -1.
      611    1    3    3    0    0  0.25610882853E-01  0.22117671275E-01  0.11191678816E+01  0.11197240088E+01  0.10000000000E-01 0. -1.
</event>
<event>
 7   0  0.6206631E-02  0.9118800E+02  0.7818608E-02  0.1180000E+00
       11   -1    0    0    0    0  0.00000000000E+00  0.00000000000E+00  0.11999999989E+02  0.12000000000E+02  0.51109989000E-03 0.  1.
     -623   -1    0    0    0    0  0.00000000000E+00  0.00000000000E+00  0.42561509872E-11  0.25126700000E+02  0.25126700000E+02 0.  1.
      622    2    1    2    0    0  0.12104182041E-01  0.16924105144E-01  0.11641672902E+02  0.11642134897E+02  0.10160741148E+00 0.  0.
       11    1    1    2    0    0  0.15162617199E-01  0.18311840635E-01  0.35703451950E+00  0.35782556897E+00  0.51109989000E-03 0.  1.
     -623    1    1    2    0    0 -0.27266799240E-01 -0.35235945779E-01  0.12925676078E-02  0.25126739534E+02  0.25126700000E+02 0.  1.
     -611    1    3    3    0    0  0.22284556261E-01  0.48264686527E-01  0.97401018450E+01  0.97402520518E+01  0.10000000000E-01 0.  1.
      611    1    3    3    0    0 -0.10180374220E-01 -0.31340581382E-01  0.19015710569E+01  0.19018828451E+01  0.10000000000E-01 0. -1.
</event>
<event>
 7   0  0.6206631E-02  0.9118800E+02  0.7818608E-02  0.1180000E+00
       11   -1    0    0    0    0  0.00000000000E+00  0.00000000000E+00  0.11999999989E+02  0.12000000000E+02  0.51109989000E-03 0.  1.
     -623   -1    0    0    0    0  0.00000000000E+00  0.00000000000E+00  0.42561509872E-11  0.25126700000E+02  0.25126700000E+02 0. -1.
      622    2    1    2    0    0  0.93072732745E-03 -0.21701065415E-02  0.11993519759E+02  0.11994085816E+02  0.11650221545E+00 0.  0.
       11    1    1    2    0    0  0.11471383917E-02  0.13017208214E-02  0.56306823531E-02  0.59140688623E-02  0.51109989000E-03 0.  1.
     -623    1    1    2    0    0 -0.20778657192E-02  0.86838572007E-03  0.84954748550E-03  0.25126700115E+02  0.25126700000E+02 0. -1.
     -611    1    3    3    0    0 -0.40059437065E-01 -0.40539694769E-01  0.70393118618E+01  0.70395496812E+01  0.10000000000E-01 0. -1.
      611    1    3    3    0    0  0.40990164392E-01  0.38369588227E-01  0.49542078975E+01  0.49545361347E+01  0.10000000000E-01 0.  1.
</event>
<event>
 7   0  0.6206631E-02  0.9118800E+02  0.7818608E-02  0.1180000E+00
       11   -1    0    0    0    0  0.00000000000E+00  0.00000000000E+00  0.11999999989E+02  0.12000000000E+02  0.51109989000E-03 0. -1.
     -623   -1    0    0    0    0  0.00000000000E+00  0.00000000000E+00  0.42561509872E-11  0.25126700000E+02  0.25126700000E+02 0. -1.
      622    2    1    2    0    0 -0.41144125670E-02 -0.23589920692E-02  0.11960988140E+02  0.11961560443E+02  0.11691219332E+00 0.  0.
       11    1    1    2    0    0  0.37946542935E-02  0.29604403333E-03  0.38247139657E-01  0.38439458351E-01  0.51109989000E-03 0. -1.
     -623    1    1    2    0    0  0.31975827353E-03  0.20629480359E-02  0.76470950044E-03  0.25126700098E+02  0.25126700000E+02 0. -1.
     -611    1    3    3    0    0  0.42188283919E-01 -0.11791296166E-01  0.22309713651E+01  0.22314237872E+01  0.10000000000E-01 0.  1.
      611    1    3    3    0    0 -0.46302696486E-01  0.94323040969E-02  0.97300167748E+01  0.97301366561E+01  0.10000000000E-01 0. -1.
</event>
<event>
 7   0  0.6206631E-02  0.9118800E+02  0.7818608E-02  0.1180000E+00
       11   -1    0    0    0    0  0.00000000000E+00  0.00000000000E+00  0.11999999989E+02  0.12000000000E+02  0.51109989000E-03 0.  1.
     -623   -1    0    0    0    0  0.00000000000E+00  0.00000000000E+00  0.42561509872E-11  0.25126700000E+02  0.25126700000E+02 0. -1.
      622    2    1    2    0    0 -0.61427689085E-01  0.48808980503E-01  0.57356703959E+01  0.57380351193E+01  0.14483253198E+00 0.  0.
       11    1    1    2    0    0  0.68265385117E-01 -0.49200152408E-01  0.62613983468E+01  0.62619637763E+01  0.51109989000E-03 0.  1.
     -623    1    1    2    0    0 -0.68376960321E-02  0.39117190582E-03  0.29312464573E-02  0.25126701104E+02  0.25126700000E+02 0. -1.
     -611    1    3    3    0    0  0.45598407497E-01  0.15882099359E-01  0.22912667121E+01  0.22917972427E+01  0.10000000000E-01 0.  1.
      611    1    3    3    0    0 -0.10702609658E+00  0.32926881144E-01  0.34444036838E+01  0.34462378766E+01  0.10000000000E-01 0. -1.
</event>
<event>
 6   0  0.6206631E-02  0.9118800E+02  0.7818608E-02  0.1180000E+00
       11   -1    0    0    0    0  0.00000000000E+00  0.00000000000E+00  0.11999999989E+02  0.12000000000E+02  0.51109989000E-03 0.  1.
     -623   -1    0    0    0    0  0.00000000000E+00  0.00000000000E+00  0.42561509872E-11  0.25126700000E+02  0.25126700000E+02 0. -1.
       11    1    1    2    0    0 -0.23582216219E-01  0.80813260753E-01  0.43750027235E+00  0.44552626586E+00  0.51109989000E-03 0.  1.
     -623    1    1    2    0    0  0.42288082188E-01  0.51802412845E-02  0.10134071603E-01  0.25126738163E+02  0.25126700000E+02 0. -1.
     -611    1    1    2    0    0  0.12691081550E-01 -0.10480667607E+00  0.11092602784E+02  0.11093109664E+02  0.10000000000E-01 0.  1.
      611    1    1    2    0    0 -0.31396947519E-01  0.18813174030E-01  0.45976286145E+00  0.46132590714E+00  0.10000000000E-01 0. -1.
</event>
<event>
 7   0  0.6206631E-02  0.9118800E+02  0.7818608E-02  0.1180000E+00
       11   -1    0    0    0    0  0.00000000000E+00  0.00000000000E+00  0.11999999989E+02  0.12000000000E+02  0.51109989000E-03 0. -1.
     -623   -1    0    0    0    0  0.00000000000E+00  0.00000000000E+00  0.42561509872E-11  0.25126700000E+02  0.25126700000E+02 0. -1.
      622    2    1    2    0    0  0.53236844750E-03 -0.18943950719E-02  0.11993277821E+02  0.11993753188E+02  0.10676504204E+00 0.  0.
       11    1    1    2    0    0 -0.70384315299E-03 -0.36033223196E-02  0.50273126894E-02  0.62461526504E-02  0.51109989000E-03 0. -1.
     -623    1    1    2    0    0  0.17147470549E-03  0.54977173915E-02  0.16948554177E-02  0.25126700659E+02  0.25126700000E+02 0. -1.
     -611    1    3    3    0    0  0.63624508156E-03 -0.20168004997E-01  0.11514911967E+02  0.11514933989E+02  0.10000000000E-01 0. -1.
      611    1    3    3    0    0 -0.10387663406E-03  0.18273609925E-01  0.47836585401E+00  0.47881919959E+00  0.10000000000E-01 0. -1.
</event>
<event>
 7   0  0.6206631E-02  0.9118800E+02  0.7818608E-02  0.1180000E+00
       11   -1    0    0    0    0  0.00000000000E+00  0.00000000000E+00  0.11999999989E+02  0.12000000000E+02  0.51109989000E-03 0. -1.
     -623   -1    0    0    0    0  0.00000000000E+00  0.00000000000E+00  0.42561509872E-11  0.25126700000E+02  0.25126700000E+02 0.  1.
      622    2    1    2    0    0 -0.30641588716E-02  0.63190892318E-03  0.11899658679E+02  0.11899977887E+02  0.87104799149E-01 0.  0.
       11    1    1    2    0    0  0.19007509450E-02  0.22886275229E-02  0.99976353606E-01  0.10002191347E+00  0.51109989000E-03 0. -1.
     -623    1    1    2    0    0  0.11634079266E-02 -0.29205364461E-02  0.36495629673E-03  0.25126700199E+02  0.25126700000E+02 0.  1.
     -611    1    3    3    0    0 -0.80116846018E-02  0.47202408776E-02  0.29759806561E+00  0.29791118881E+00  0.10000000000E-01 0. -1.
      611    1    3    3    0    0  0.49475257302E-02 -0.40883319544E-02  0.11602060614E+02  0.11602066698E+02  0.10000000000E-01 0. -1.
</event>
<event>
 7   0  0.6206631E-02  0.9118800E+02  0.7818608E-02  0.1180000E+00
       11   -1    0    0    0    0  0.00000000000E+00  0.00000000000E+00  0.11999999989E+02  0.12000000000E+02  0.51109989000E-03 0. -1.
     -623   -1    0    0    0    0  0.00000000000E+00  0.00000000000E+00  0.42561509872E-11  0.25126700000E+02  0.25126700000E+02 0. -1.
      622    2    1    2    0    0  0.54046079485E-02  0.16504646155E-01  0.10738043543E+02  0.10738273893E+02  0.68157699675E-01 0.  0.
       11    1    1    2    0    0 -0.43429491054E-02 -0.16538402008E-01  0.12616101077E+01  0.12617260816E+01  0.51109989000E-03 0. -1.
     -623    1    1    2    0    0 -0.10616588432E-02  0.33755852407E-04  0.34633858973E-03  0.25126700025E+02  0.25126700000E+02 0. -1.
     -611    1    3    3    0    0  0.14411352003E-01  0.29847558507E-01  0.96716801496E+01  0.96717421119E+01  0.10000000000E-01 0. -1.
      611    1    3    3    0    0 -0.90067440550E-02 -0.13342912352E-01  0.10663633932E+01  0.10665317816E+01  0.10000000000E-01 0.  1.
</event>
<event>
 7   0  0.6206631E-02  0.9118800E+02  0.7818608E-02  0.1180000E+00
       11   -1    0    0    0    0  0.00000000000E+00  0.00000000000E+00  0.11999999989E+02  0.12000000000E+02  0.51109989000E-03 0.  1.
     -623   -1    0    0    0    0  0.00000000000E+00  0.00000000000E+00  0.42561509872E-11  0.25126700000E+02  0.25126700000E+02 0. -1.
      622    2    1    2    0    0 -0.41028574885E-01 -0.80805963708E-01  0.40233519910E+01  0.40261270005E+01  0.11884625637E+00 0.  0.
       11    1    1    2    0    0  0.42626171770E-01  0.98600866376E-01  0.79731427951E+01  0.79738664030E+01  0.51109989000E-03 0.  1.
     -623    1    1    2    0    0 -0.15975968848E-02 -0.17794902668E-01  0.35052030457E-02  0.25126706597E+02  0.25126700000E+02 0. -1.
     -611    1    3    3    0    0 -0.68311354534E-01 -0.16830302168E-01  0.13669089120E+01  0.13687547896E+01  0.10000000000E-01 0. -1.
      611    1    3    3    0    0  0.27282779648E-01 -0.63975661540E-01  0.26564430790E+01  0.26573722109E+01  0.10000000000E-01 0.  1.
</event>
<event>
 7   0  0.6206631E-02  0.9118800E+02  0.7818608E-02  0.1180000E+00
       11   -1    0    0    0    0  0.00000000000E+00  0.00000000000E+00  0.11999999989E+02  0.12000000000E+02  0.51109989000E-03 0.  1.
     -623   -1    0    0    0    0  0.00000000000E+00  0.00000000000E+00  0.42561509872E-11  0.25126700000E+02  0.25126700000E+02 0. -1.
      622    2    1    2    0    0 -0.16113741332E-02  0.85103973632E-03  0.11434463626E+02  0.11434671134E+02  0.68863723511E-01 0.  0.
       11    1    1    2    0    0  0.24427668110E-01 -0.66438983036E-02  0.56475050371E+00  0.56531782655E+00  0.51109989000E-03 0.  1.
     -623    1    1    2    0    0 -0.22816293977E-01  0.57928585672E-02  0.78585938387E-03  0.25126711039E+02  0.25126700000E+02 0. -1.
     -611    1    3    3    0    0 -0.18376426989E-01  0.11717133868E-01  0.10039309247E+02  0.10039337884E+02  0.10000000000E-01 0.  1.
      611    1    3    3    0    0  0.16765052856E-01 -0.10866094132E-01  0.13951543788E+01  0.13953332504E+01  0.10000000000E-01 0. -1.
</event>
<event>
 7   0  0.6206631E-02  0.9118800E+02  0.7818608E-02  0.1180000E+00
       11   -1    0    0    0    0  0.00000000000E+00  0.00000000000E+00  0.11999999989E+02  0.12000000000E+02  0.51109989000E-03 0.  1.
     -623   -1    0    0    0    0  0.00000000000E+00  0.00000000000E+00  0.42561509872E-11  0.25126700000E+02  0.25126700000E+02 0.  1.
      622    2    1    2    0    0 -0.10245601142E-01 -0.12571560556E-01  0.11740073850E+02  0.11740538484E+02  0.10318370031E+00 0.  0.
       11    1    1    2    0    0  0.93403155520E-02  0.11732742629E-01  0.25902720732E+00  0.25946146939E+00  0.51109989000E-03 0.  1.
     -623    1    1    2    0    0  0.90528559032E-03  0.83881792640E-03  0.89893165265E-03  0.25126700046E+02  0.25126700000E+02 0.  1.
     -611    1    3    3    0    0 -0.43294386444E-01 -0.27047112688E-01  0.35712182732E+01  0.35715971085E+01  0.10000000000E-01 0. -1.
      611    1    3    3    0    0  0.33048785302E-01  0.14475552132E-01  0.81688555769E+01  0.81689413757E+01  0.10000000000E-01 0.  1.
</event>
<event>
 6   0  0.6206631E-02  0.9118800E+02  0.7818608E-02  0.1180000E+00
       11   -1    0    0    0    0  0.00000000000E+00  0.00000000000E+00  0.11999999989E+02  0.12000000000E+02  0.51109989000E-03 0.  1.
     -623   -1    0    0    0    0  0.00000000000E+00  0.00000000000E+00  0.42561509872E-11  0.25126700000E+02  0.25126700000E+02 0. -1.
       11    1    1    2    0    0 -0.13163858508E+00  0.37605838562E-01  0.97712733424E+00  0.98667168031E+00  0.51109989000E-03 0.  1.
     -623    1    1    2    0    0 -0.71976002729E-01 -0.30370892292E-01  0.16274792210E-01  0.25126826714E+02  0.25126700000E+02 0. -1.
     -611    1    1    2    0    0  0.55354291957E-02 -0.14006411437E+00  0.35368381678E+01  0.35396289102E+01  0.10000000000E-01 0. -1.
      611    1    1    2    0    0  0.19807915861E+00  0.13282916810E+00  0.74697596949E+01  0.74735726959E+01  0.10000000000E-01 0.  1.
</event>
<event>
 7   0  0.6206631E-02  0.9118800E+02  0.7818608E-02  0.1180000E+00
       11   -1    0    0    0    0  0.00000000000E+00  0.00000000000E+00  0.11999999989E+02  0.12000000000E+02  0.51109989000E-03 0. -1.
     -623   -1    0    0    0    0  0.00000000000E+00  0.00000000000E+00  0.42561509872E-11  0.25126700000E+02  0.25126700000E+02 0. -1.
      622    2    1    2    0    0 -0.17375741774E-01  0.49349273273E-01  0.68625108730E+01  0.68634037043E+01  0.97558494148E-01 0.  0.
       11    1    1    2    0    0  0.45914104771E-01  0.92256517317E-02  0.51362982638E+01  0.51365117865E+01  0.51109989000E-03 0. -1.
     -623    1    1    2    0    0 -0.28538362997E-01 -0.58574925004E-01  0.11908523789E-02  0.25126784509E+02  0.25126700000E+02 0. -1.
     -611    1    3    3    0    0 -0.48221310699E-01  0.57308424122E-01  0.41555050679E+01  0.41561919974E+01  0.10000000000E-01 0.  1.
      611    1    3    3    0    0  0.30845568925E-01 -0.79591508494E-02  0.27070058051E+01  0.27072117069E+01  0.10000000000E-01 0. -1.
</event>
<event>
 7   0  0.6206631E-02  0.9118800E+02  0.7818608E-02  0.1180000E+00
       11   -1    0    0    0    0  0.00000000000E+00  0.00000000000E+00  0.11999999989E+02  0.12000000000E+02  0.51109989000E-03 0.  1.
     -623   -1    0    0    0    0  0.00000000000E+00  0.00000000000E+00  0.42561509872E-11  0.25126700000E+02  0.25126700000E+02 0.  1.
      622    2    1    2    0    0  0.21945352723E-01 -0.10853881265E+00  0.51630295587E+01  0.51651630146E+01  0.98855808760E-01 0.  0.
       11    1    1    2    0    0 -0.36373145085E-01  0.92410336201E-01  0.68341059449E+01  0.68348275035E+01  0.51109989000E-03 0.  1.
     -623    1    1    2    0    0  0.14427792362E-01  0.16128476448E-01  0.28644854874E-02  0.25126709482E+02  0.25126700000E+02 0.  1.
     -611    1    3    3    0    0  0.27176785567E-02  0.16183011919E-01  0.41289600361E+00  0.41334293928E+00  0.10000000000E-01 0. -1.
      611    1    3    3    0    0  0.19227674166E-01 -0.12472182457E+00  0.47501335551E+01  0.47518200754E+01  0.10000000000E-01 0.  1.
</event>
<event>
 7   0  0.6206631E-02  0.9118800E+02  0.7818608E-02  0.1180000E+00
       11   -1    0    0    0    0  0.00000000000E+00  0.00000000000E+00  0.11999999989E+02  0.12000000000E+02  0.51109989000E-03 0. -1.
     -623   -1    0    0    0    0  0.00000000000E+00  0.00000000000E+00  0.42561509872E-11  0.25126700000E+02  0.25126700000E+02 0.  1.
      622    2    1    2    0    0  0.10296561418E-02  0.36564624067E-02  0.10875840652E+02  0.10875884712E+02  0.30723661520E-01 0.  0.
       11    1    1    2    0    0 -0.38911167412E-02 -0.43256572805E-02  0.11240999431E+01  0.11241151167E+01  0.51109989000E-03 0. -1.
     -623    1    1    2    0    0  0.28614605994E-02  0.66919487403E-03  0.59394193679E-04  0.25126700172E+02  0.25126700000E+02 0.  1.
     -611    1    3    3    0    0  0.16508647116E-02 -0.95709866300E-02  0.58714951900E+01  0.58715117385E+01  0.10000000000E-01 0. -1.
      611    1    3    3    0    0 -0.62120856973E-03  0.13227449037E-01  0.50043454623E+01  0.50043729734E+01  0.10000000000E-01 0. -1.
</event>
<event>
 7   0  0.6206631E-02  0.9118800E+02  0.7818608E-02  0.1180000E+00
       11   -1    0    0    0    0  0.00000000000E+00  0.00000000000E+00  0.11999999989E+02  0.12000000000E+02  0.51109989000E-03 0. -1.
     -623   -1    0    0    0    0  0.00000000000E+00  0.00000000000E+00  0.42561509872E-11  0.25126700000E+02  0.25126700000E+02 0. -1.
      622    2    1    2    0    0  0.21290137905E-02  0.16187298049E-02  0.11945923542E+02  0.11946232153E+02  0.85826713952E-01 0.  0.
       11    1    1    2    0    0  0.54006531254E-03 -0.26203588898E-02  0.53698645578E-01  0.53767682778E-01  0.51109989000E-03 0. -1.
     -623    1    1    2    0    0 -0.26690791030E-02  0.10016290849E-02  0.37780170753E-03  0.25126700165E+02  0.25126700000E+02 0. -1.
     -611    1    3    3    0    0  0.21624872610E-01 -0.30319426979E-01  0.85643634737E+01  0.85644502808E+01  0.10000000000E-01 0. -1.
      611    1    3    3    0    0 -0.19495858819E-01  0.31938156784E-01  0.33815600681E+01  0.33817818718E+01  0.10000000000E-01 0.  1.
</event>
<event>
 7   0  0.6206631E-02  0.9118800E+02  0.7818608E-02  0.1180000E+00
       11   -1    0    0    0    0  0.00000000000E+00  0.00000000000E+00  0.11999999989E+02  0.12000000000E+02  0.51109989000E-03 0. -1.
     -623   -1    0    0    0    0  0.00000000000E+00  0.00000000000E+00  0.42561509872E-11  0.25126700000E+02  0.25126700000E+02 0. -1.
      622    2    1    2    0    0  0.32385568384E-01 -0.99987439448E-03  0.10142113712E+02  0.10142606454E+02  0.94579637697E-01 0.  0.
       11    1    1    2    0    0 -0.38489687578E-01  0.16250418589E-01  0.18569181388E+01  0.18573881575E+01  0.51109989000E-03 0. -1.
     -623    1    1    2    0    0  0.61041191941E-02 -0.15250544194E-01  0.96813798863E-03  0.25126705388E+02  0.25126700000E+02 0. -1.
     -611    1    3    3    0    0  0.26811781661E-01 -0.97538992870E-02  0.94899470669E+00  0.94947615216E+00  0.10000000000E-01 0.  1.
      611    1    3    3    0    0  0.55737867232E-02  0.87540248925E-02  0.91931190056E+01  0.91931303021E+01  0.10000000000E-01 0. -1.
</event>
<event>
 7   0  0.6206631E-02  0.9118800E+02  0.7818608E-02  0.1180000E+00
       11   -1    0    0    0    0  0.00000000000E+00  0.00000000000E+00  0.11999999989E+02  0.12000000000E+02  0.51109989000E-03 0.  1.
     -623   -1    0    0    0    0  0.00000000000E+00  0.00000000000E+00  0.42561509872E-11  0.25126700000E+02  0.25126700000E+02 0.  1.
      622    2    1    2    0    0 -0.68341583248E-01 -0.54736319023E-01  0.68334257786E+01  0.68348325802E+01  0.10752623547E+00 0.  0.
       11    1    1    2    0    0  0.55240263095E-01  0.51839189702E-01  0.51646081770E+01  0.51651637603E+01  0.51109989000E-03 0.  1.
     -623    1    1    2    0    0  0.13101320153E-01  0.28971293215E-02  0.19660336207E-02  0.25126703660E+02  0.25126700000E+02 0.  1.
     -611    1    3    3    0    0 -0.84549167876E-01 -0.72638820282E-01  0.52684330975E+01  0.52696216433E+01  0.10000000000E-01 0. -1.
      611    1    3    3    0    0  0.16207584628E-01  0.17902501258E-01  0.15649926810E+01  0.15652109369E+01  0.10000000000E-01 0.  1.
</event>
<event>
 7   0  0.6206631E-02  0.9118800E+02  0.7818608E-02  0.1180000E+00
       11   -1    0    0    0    0  0.00000000000E+00  0.00000000000E+00  0.11999999989E+02  0.12000000000E+02  0.51109989000E-03 0.  1.
     -623   -1    0    0    0    0  0.00000000000E+00  0.00000000000E+00  0.42561509872E-11  0.25126700000E+02  0.25126700000E+02 0. -1.
      622    2    1    2    0    0  0.25034645335E-01  0.56708772805E-01  0.98499614599E+01  0.98507615888E+01  0.10918103935E+00 0.  0.
       11    1    1    2    0    0  0.50903658486E-01 -0.10268912829E+00  0.21460227867E+01  0.21490812692E+01  0.51109989000E-03 0.  1.
     -623    1    1    2    0    0 -0.75938303821E-01  0.45980355487E-01  0.40157425638E-02  0.25126857142E+02  0.25126700000E+02 0. -1.
     -611    1    3    3    0    0 -0.33833643733E-01  0.50528376644E-01  0.37685638881E+01  0.37690677376E+01  0.10000000000E-01 0. -1.
      611    1    3    3    0    0  0.58868289068E-01  0.61803961605E-02  0.60813975718E+01  0.60816938511E+01  0.10000000000E-01 0.  1.
</event>
<event>
 7   0  0.6206631E-02  0.9118800E+02  0.7818608E-02  0.1180000E+00
       11   -1    0    0    0    0  0.00000000000E+00  0.00000000000E+00  0.11999999989E+02  0.12000000000E+02  0.51109989000E-03 0.  1.
     -623   -1    0    0    0    0  0.00000000000E+00  0.00000000000E+00  0.42561509872E-11  0.25126700000E+02  0.25126700000E+02 0.  1.
      622    2    1    2    0    0 -0.10257015902E-01  0.34630495704E-01  0.94814786095E+01  0.94827427557E+01  0.15056251586E+00 0.  0.
       11    1    1    2    0    0  0.93864553863E-02 -0.37687390119E-01  0.25169573041E+01  0.25172569946E+01  0.51109989000E-03 0.  1.
     -623    1    1    2    0    0  0.87056051566E-03  0.30568944150E-02  0.15640755409E-02  0.25126700250E+02  0.25126700000E+02 0.  1.
     -611    1    3    3    0    0 -0.26101880716E-01  0.90042946444E-01  0.50723407054E+01  0.50732168564E+01  0.10000000000E-01 0. -1.
      611    1    3    3    0    0  0.15844864814E-01 -0.55412450740E-01  0.44091379040E+01  0.44095258992E+01  0.10000000000E-01 0.  1.
</event>
<event>
 7   0  0.6206631E-02  0.9118800E+02  0.7818608E-02  0.1180000E+00
       11   -1    0    0    0    0  0.00000000000E+00  0.00000000000E+00  0.11999999989E+02  0.12000000000E+02  0.51109989000E-03 0.  1.
     -623   -1    0    0    0    0  0.00000000000E+00  0.00000000000E+00  0.42561509872E-11  0.25126700000E+02  0.25126700000E+02 0. -1.
      622    2    1    2    0    0 -0.20447010524E-02 -0.73138583074E-03  0.11982290804E+02  0.11982412350E+02  0.53926836444E-01 0.  0.
       11    1    1    2    0    0  0.34258003309E-02 -0.68777930276E-03  0.17229397422E-01  0.17587566829E-01  0.51109989000E-03 0.  1.
     -623    1    1    2    0    0 -0.13810992785E-02  0.14191651335E-02  0.47978737529E-03  0.25126700083E+02  0.25126700000E+02 0. -1.
     -611    1    3    3    0    0 -0.27984055265E-02 -0.13248055724E-01  0.10796096850E+02  0.10796109973E+02  0.10000000000E-01 0.  1.
      611    1    3    3    0    0  0.75370447418E-03  0.12516669893E-01  0.11861939537E+01  0.11863023775E+01  0.10000000000E-01 0.  1.
</event>
<event>
 7   0  0.6206631E-02  0.9118800E+02  0.7818608E-02  0.1180000E+00
       11   -1    0    0    0    0  0.00000000000E+00  0.00000000000E+00  0.11999999989E+02  0.12000000000E+02  0.51109989000E-03 0.  1.
     -623   -1    0    0    0    0  0.00000000000E+00  0.00000000000E+00  0.42561509872E-11  0.25126700000E+02  0.25126700000E+02 0.  1.
      622    2    1    2    0    0 -0.19909887605E-01  0.57740468147E-02  0.98079559973E+01  0.98086007489E+01  0.11053534675E+00 0.  0.
       11    1    1    2    0    0  0.16211263686E-01 -0.62997866197E-03  0.21913383286E+01  0.21913984424E+01  0.51109989000E-03 0.  1.
     -623    1    1    2    0    0  0.36986239192E-02 -0.51440681527E-02  0.70566324107E-03  0.25126700809E+02  0.25126700000E+02 0.  1.
     -611    1    3    3    0    0  0.42451617853E-01  0.18364123017E-01  0.47191398825E+01  0.47193771423E+01  0.10000000000E-01 0.  1.
      611    1    3    3    0    0 -0.62361505458E-01 -0.12590076202E-01  0.50888161148E+01  0.50892236066E+01  0.10000000000E-01 0. -1.
</event>
<event>
 7   0  0.6206631E-02  0.9118800E+02  0.7818608E-02  0.1180000E+00
       11   -1    0    0    0    0  0.00000000000E+00  0.00000000000E+00  0.11999999989E+02  0.12000000000E+02  0.51109989000E-03 0.  1.
     -623   -1    0    0    0    0  0.00000000000E+00  0.00000000000E+00  0.42561509872E-11  0.25126700000E+02  0.25126700000E+02 0. -1.
      622    2    1    2    0    0  0.88479016554E-02 -0.14056923301E-02  0.11208681796E+02  0.11209241481E+02  0.11165445200E+00 0.  0.
       11    1    1    2    0    0 -0.63206291313E-02  0.17204054228E-02  0.79073108471E+00  0.79075838263E+00  0.51109989000E-03 0.  1.
     -623    1    1    2    0    0 -0.25272725241E-02 -0.31471309266E-03  0.58710808228E-03  0.25126700136E+02  0.25126700000E+02 0. -1.
     -611    1    3    3    0    0 -0.44523281643E-02  0.22410514468E-01  0.10412339216E+02  0.10412369087E+02  0.10000000000E-01 0.  1.
      611    1    3    3    0    0  0.13300229820E-01 -0.23816206798E-01  0.79634258021E+00  0.79687239435E+00  0.10000000000E-01 0. -1.
</event>
<event>
 7   0  0.6206631E-02  0.9118800E+02  0.7818608E-02  0.1180000E+00
       11   -1    0    0    0    0  0.00000000000E+00  0.00000000000E+00  0.11999999989E+02  0.12000000000E+02  0.51109989000E-03 0.  1.
     -623   -1    0    0    0    0  0.00000000000E+00  0.00000000000E+00  0.42561509872E-11  0.25126700000E+02  0.25126700000E+02 0. -1.
      622    2    1    2    0    0  0.35886835179E-01 -0.23328651030E-01  0.10069209307E+02  0.10069689206E+02  0.88501719646E-01 0.  0.
       11    1    1    2    0    0  0.17071320899E-01 -0.48436124922E-01  0.19294690451E+01  0.19301524669E+01  0.51109989000E-03 0.  1.
     -623    1    1    2    0    0 -0.52958156077E-01  0.71764775953E-01  0.13216373209E-02  0.25126858327E+02  0.25126700000E+02 0. -1.
     -611    1    3    3    0    0 -0.17957199310E-01 -0.36378409342E-01  0.46315425485E+01  0.46317310186E+01  0.10000000000E-01 0.  1.
      611    1    3    3    0    0  0.53844034489E-01  0.13049758311E-01  0.54376667581E+01  0.54379581875E+01  0.10000000000E-01 0. -1.
</event>
<event>
 7   0  0.6206631E-02  0.9118800E+02  0.7818608E-02  0.1180000E+00
       11   -1    0    0    0    0  0.00000000000E+00  0.00000000000E+00  0.11999999989E+02  0.12000000000E+02  0.51109989000E-03 0. -1.
     -623   -1    0    0    0    0  0.00000000000E+00  0.00000000000E+00  0.42561509872E-11  0.25126700000E+02  0.25126700000E+02 0.  1.
      622    2    1    2    0    0  0.11639806583E-03  0.16915114452E-01  0.11564723762E+02  0.11564997056E+02  0.77685831250E-01 0.  0.
       11    1    1    2    0    0  0.26247732420E-02 -0.51555614407E-01  0.43190430459E+00  0.43497868954E+00  0.51109989000E-03 0. -1.
     -623    1    1    2    0    0 -0.27411713078E-02  0.34640499955E-01  0.33719224993E-02  0.25126724254E+02  0.25126700000E+02 0.  1.
     -611    1    3    3    0    0  0.22392296454E-02 -0.28837019911E-01  0.58970872059E+01  0.58971666164E+01  0.10000000000E-01 0.  1.
      611    1    3    3    0    0 -0.21228315796E-02  0.45752134363E-01  0.56676365561E+01  0.56678304400E+01  0.10000000000E-01 0. -1.
</event>
<event>
 7   0  0.6206631E-02  0.9118800E+02  0.7818608E-02  0.1180000E+00
       11   -1    0    0    0    0  0.00000000000E+00  0.00000000000E+00  0.11999999989E+02  0.12000000000E+02  0.51109989000E-03 0.  1.
     -623   -1    0    0    0    0  0.00000000000E+00  0.00000000000E+00  0.42561509872E-11  0.25126700000E+02  0.25126700000E+02 0.  1.
      622    2    1    2    0    0  0.53847281126E-02 -0.61244315831E-01  0.77797631294E+01  0.77807977890E+01  0.11099559779E+00 0.  0.
       11    1    1    2    0    0 -0.22735607595E-01  0.55140083950E-01  0.42187738184E+01  0.42191954362E+01  0.51109989000E-03 0.  1.
     -623    1    1    2    0    0  0.17350879482E-01  0.61042318812E-02  0.14630413086E-02  0.25126706775E+02  0.25126700000E+02 0.  1.
     -611    1    3    3    0    0  0.15506153044E-01  0.49687077956E-03  0.22109613679E+00  0.22186525047E+00  0.10000000000E-01 0. -1.
      611    1    3    3    0    0 -0.10121424932E-01 -0.61741186611E-01  0.75586669926E+01  0.75589325386E+01  0.10000000000E-01 0.  1.
</event>
<event>
 7   0  0.6206631E-02  0.9118800E+02  0.7818608E-02  0.1180000E+00
       11   -1    0    0    0    0  0.00000000000E+00  0.00000000000E+00  0.11999999989E+02  0.12000000000E+02  0.51109989000E-03 0. -1.
     -623   -1    0    0    0    0  0.00000000000E+00  0.00000000000E+00  0.42561509872E-11  0.25126700000E+02  0.25126700000E+02 0.  1.
      622    2    1    2    0    0  0.16201425717E+00  0.16015710491E+00  0.40290815359E+01  0.40366668220E+01  0.96343609953E-01 0.  0.
       11    1    1    2    0    0 -0.21608771420E+00 -0.22021757969E+00  0.79572203690E+01  0.79631994792E+01  0.51109989000E-03 0. -1.
     -623    1    1    2    0    0  0.54073457022E-01  0.60060474783E-01  0.13698084168E-01  0.25126833699E+02  0.25126700000E+02 0.  1.
     -611    1    3    3    0    0  0.74783825927E-01  0.14747051316E-01  0.13901786849E+01  0.13923027228E+01  0.10000000000E-01 0.  1.
      611    1    3    3    0    0  0.87230431245E-01  0.14541005359E+00  0.26389028511E+01  0.26443640992E+01  0.10000000000E-01 0. -1.
</event>
<event>
 7   0  0.6206631E-02  0.9118800E+02  0.7818608E-02  0.1180000E+00
       11   -1    0    0    0    0  0.00000000000E+00  0.00000000000E+00  0.11999999989E+02  0.12000000000E+02  0.51109989000E-03 0.  1.
     -623   -1    0    0    0    0  0.00000000000E+00  0.00000000000E+00  0.42561509872E-11  0.25126700000E+02  0.25126700000E+02 0.  1.
      622    2    1    2    0    0 -0.10607716827E-02  0.93511759627E-02  0.11709573216E+02  0.11710072317E+02  0.10770426046E+00 0.  0.
       11    1    1    2    0    0  0.16009431030E-02 -0.83585133330E-02  0.28980226522E+00  0.28992764945E+00  0.51109989000E-03 0.  1.
     -623    1    1    2    0    0 -0.54017142032E-03 -0.99266262966E-03  0.62450790399E-03  0.25126700033E+02  0.25126700000E+02 0.  1.
     -611    1    3    3    0    0 -0.20830662648E-01  0.49946483803E-01  0.42584704002E+01  0.42588259787E+01  0.10000000000E-01 0.  1.
      611    1    3    3    0    0  0.19769890965E-01 -0.40595307841E-01  0.74511028158E+01  0.74512463387E+01  0.10000000000E-01 0.  1.
</event>
<event>
 7   0  0.6206631E-02  0.9118800E+02  0.7818608E-02  0.1180000E+00
       11   -1    0    0    0    0  0.00000000000E+00  0.00000000000E+00  0.11999999989E+02  0.12000000000E+02  0.51109989000E-03 0. -1.
     -623   -1    0    0    0    0  0.00000000000E+00  0.00000000000E+00  0.42561509872E-11  0.25126700000E+02  0.25126700000E+02 0. -1.
      622    2    1    2    0    0 -0.10306617528E-02  0.52149684219E-02  0.11988079490E+02  0.11988449380E+02  0.94023510592E-01 0.  0.
       11    1    1    2    0    0  0.81343595260E-03  0.88878370030E-04  0.11509690820E-01  0.11550055555E-01  0.51109989000E-03 0. -1.
     -623    1    1    2    0    0  0.21722580020E-03 -0.53038467919E-02  0.41080794920E-03  0.25126700564E+02  0.25126700000E+02 0. -1.
     -611    1    3    3    0    0 -0.38100469355E-02 -0.19367506889E-01  0.10963941032E+02  0.10963963361E+02  0.10000000000E-01 0. -1.
      611    1    3    3    0    0  0.27793851827E-02  0.24582475311E-01  0.10241384582E+01  0.10244860197E+01  0.10000000000E-01 0.  1.
</event>
<event>
 7   0  0.6206631E-02  0.9118800E+02  0.7818608E-02  0.1180000E+00
       11   -1    0    0    0    0  0.00000000000E+00  0.00000000000E+00  0.11999999989E+02  0.12000000000E+02  0.51109989000E-03 0. -1.
     -623   -1    0    0    0    0  0.00000000000E+00  0.00000000000E+00  0.42561509872E-11  0.25126700000E+02  0.25126700000E+02 0.  1.
      622    2    1    2    0    0 -0.56496893304E-03  0.14690526409E-02  0.11991869408E+02  0.11992326057E+02  0.10464169302E+00 0.  0.
       11    1    1    2    0    0  0.16627841163E-02 -0.14883551785E-02  0.73244497951E-02  0.76739064426E-02  0.51109989000E-03 0. -1.
     -623    1    1    2    0    0 -0.10978151833E-02  0.19302537599E-04  0.80613178670E-03  0.25126700037E+02  0.25126700000E+02 0.  1.
     -611    1    3    3    0    0 -0.27500821241E-01 -0.45585808199E-02  0.10957735520E+02  0.10957775541E+02  0.10000000000E-01 0. -1.
      611    1    3    3    0    0  0.26935852308E-01  0.60276334609E-02  0.10341338871E+01  0.10345505154E+01  0.10000000000E-01 0.  1.
</event>
<event>
 7   0  0.6206631E-02  0.9118800E+02  0.7818608E-02  0.1180000E+00
       11   -1    0    0    0    0  0.00000000000E+00  0.00000000000E+00  0.11999999989E+02  0.12000000000E+02  0.51109989000E-03 0. -1.
     -623   -1    0    0    0    0  0.00000000000E+00  0.00000000000E+00  0.42561509872E-11  0.25126700000E+02  0.25126700000E+02 0. -1.
      622    2    1    2    0    0  0.21532051239E-01 -0.23892721270E-01  0.10626086195E+02  0.10626585056E+02  0.97814385160E-01 0.  0.
       11    1    1    2    0    0 -0.18855251065E-01  0.24796598477E-01  0.13730613527E+01  0.13734147703E+01  0.51109989000E-03 0. -1.
     -623    1    1    2    0    0 -0.26768001745E-02 -0.90387720729E-03  0.85244179930E-03  0.25126700173E+02  0.25126700000E+02 0. -1.
     -611    1    3    3    0    0 -0.27631035261E-01  0.15175597585E-02  0.70084546673E+01  0.70085164336E+01  0.10000000000E-01 0. -1.
      611    1    3    3    0    0  0.49163086500E-01 -0.25410281028E-01  0.36176315274E+01  0.36180686228E+01  0.10000000000E-01 0.  1.
</event>
<event>
 7   0  0.6206631E-02  0.9118800E+02  0.7818608E-02  0.1180000E+00
       11   -1    0    0    0    0  0.00000000000E+00  0.00000000000E+00  0.11999999989E+02  0.12000000000E+02  0.51109989000E-03 0.  1.
     -623   -1    0    0    0    0  0.00000000000E+00  0.00000000000E+00  0.42561509872E-11  0.25126700000E+02  0.25126700000E+02 0.  1.
      622    2    1    2    0    0  0.13661602379E-02 -0.10357316380E-02  0.11984182978E+02  0.11984363215E+02  0.65704563810E-01 0.  0.
       11    1    1    2    0    0 -0.12128124318E-02  0.18493153253E-04  0.15581266273E-01  0.15636762382E-01  0.51109989000E-03 0.  1.
     -623    1    1    2    0    0 -0.15334780619E-03  0.10172384847E-02  0.23574481042E-03  0.25126700022E+02  0.25126700000E+02 0.  1.
     -611    1    3    3    0    0  0.15937393748E-01  0.11080700768E-02  0.10717119784E+01  0.10718776949E+01  0.10000000000E-01 0. -1.
      611    1    3    3    0    0 -0.14571233510E-01 -0.21438017147E-02  0.10912471000E+02  0.10912485520E+02  0.10000000000E-01 0.  1.
</event>
<event>
 7   0  0.6206631E-02  0.9118800E+02  0.7818608E-02  0.1180000E+00
       11   -1    0    0    0    0  0.00000000000E+00  0.00000000000E+00  0.11999999989E+02  0.12000000000E+02  0.51109989000E-03 0.  1.
     -623   -1    0    0    0    0  0.00000000000E+00  0.00000000000E+00  0.42561509872E-11  0.25126700000E+02  0.25126700000E+02 0.  1.
      622    2    1    2    0    0  0.15682483998E-01  0.51021207186E-02  0.11614542251E+02  0.11614793924E+02  0.74660731464E-01 0.  0.
       11    1    1    2    0    0 -0.12985832686E-01 -0.36145651296E-02  0.38496962716E+00  0.38520588260E+00  0.51109989000E-03 0.  1.
     -623    1    1    2    0    0 -0.26966513121E-02 -0.14875555891E-02  0.48811104218E-03  0.25126700193E+02  0.25126700000E+02 0.  1.
     -611    1    3    3    0    0 -0.21604776423E-01  0.20059781816E-01  0.32465924122E+01  0.32467416670E+01  0.10000000000E-01 0. -1.
      611    1    3    3    0    0  0.37287260421E-01 -0.14957661097E-01  0.83679498387E+01  0.83680522569E+01  0.10000000000E-01 0.  1.
</event>
<event>
 7   0  0.6206631E-02  0.9118800E+02  0.7818608E-02  0.1180000E+00
       11   -1    0    0    0    0  0.00000000000E+00  0.00000000000E+00  0.11999999989E+02  0.12000000000E+02  0.51109989000E-03 0. -1.
     -623   -1    0    0    0    0  0.00000000000E+00  0.00000000000E+00  0.42561509872E-11  0.25126700000E+02  0.25126700000E+02 0.  1.
      622    2    1    2    0    0  0.14084341084E-01  0.13171086131E-01  0.11052634004E+02  0.11052985258E+02  0.85981655893E-01 0.  0.
       11    1    1    2    0    0 -0.20787625693E-01 -0.10463534027E-01  0.94672755544E+00  0.94701369387E+00  0.51109989000E-03 0. -1.
     -623    1    1    2    0    0  0.67032846095E-02 -0.27075521040E-02  0.63842987497E-03  0.25126701048E+02  0.25126700000E+02 0.  1.
     -611    1    3    3    0    0  0.56709363774E-02  0.27892039362E-01  0.13736624277E+01  0.13739936647E+01  0.10000000000E-01 0.  1.
      611    1    3    3    0    0  0.84134047061E-02 -0.14720953231E-01  0.96789715761E+01  0.96789915933E+01  0.10000000000E-01 0. -1.
</event>
<event>
 7   0  0.6206631E-02  0.9118800E+02  0.7818608E-02  0.1180000E+00
       11   -1    0    0    0    0  0.00000000000E+00  0.00000000000E+00  0.11999999989E+02  0.12000000000E+02  0.51109989000E-03 0. -1.
     -623   -1    0    0    0    0  0.00000000000E+00  0.00000000000E+00  0.42561509872E-11  0.25126700000E+02  0.25126700000E+02 0.  1.
      622    2    1    2    0    0 -0.26181722032E-02 -0.59095480564E-02  0.11941384386E+02  0.11941836728E+02  0.10373815802E+00 0.  0.
       11    1    1    2    0    0  0.37825942072E-01  0.89711636676E-02  0.43220162970E-01  0.58133702630E-01  0.51109989000E-03 0. -1.
     -623    1    1    2    0    0 -0.35207769869E-01 -0.30616156112E-02  0.15395440465E-01  0.25126729570E+02  0.25126700000E+02 0.  1.
     -611    1    3    3    0    0 -0.32215924183E-01  0.17988522677E-01  0.98978737730E+01  0.98979475993E+01  0.10000000000E-01 0. -1.
      611    1    3    3    0    0  0.29597751980E-01 -0.23898070733E-01  0.20435106126E+01  0.20438891283E+01  0.10000000000E-01 0.  1.
</event>
<event>
 7   0  0.6206631E-02  0.9118800E+02  0.7818608E-02  0.1180000E+00
       11   -1    0    0    0    0  0.00000000000E+00  0.00000000000E+00  0.11999999989E+02  0.12000000000E+02  0.51109989000E-03 0.  1.
     -623   -1    0    0    0    0  0.00000000000E+00  0.00000000000E+00  0.42561509872E-11  0.25126700000E+02  0.25126700000E+02 0.  1.
      622    2    1    2    0    0 -0.56534638861E-05 -0.19819032258E-02  0.11967895745E+02  0.11968386085E+02  0.10831892634E+00 0.  0.
       11    1    1    2    0    0 -0.20475475556E-02  0.21254107789E-02  0.31471617765E-01  0.31613822449E-01  0.51109989000E-03 0.  1.
     -623    1    1    2    0    0  0.20532010195E-02 -0.14350755310E-03  0.63262612168E-03  0.25126700092E+02  0.25126700000E+02 0.  1.
     -611    1    3    3    0    0 -0.39901301790E-01 -0.13732631153E-01  0.23809676995E+01  0.23813626110E+01  0.10000000000E-01 0. -1.
      611    1    3    3    0    0  0.39895648326E-01  0.11750727927E-01  0.95869280458E+01  0.95870234743E+01  0.10000000000E-01 0.  1.
</event>
<event>
 7   0  0.6206631E-02  0.9118800E+02  0.7818608E-02  0.1180000E+00
       11   -1    0    0    0    0  0.00000000000E+00  0.00000000000E+00  0.11999999989E+02  0.12000000000E+02  0.51109989000E-03 0.  1.
     -623   -1    0    0    0    0  0.00000000000E+00  0.00000000000E+00  0.42561509872E-11  0.25126700000E+02  0.25126700000E+02 0.  1.
      622    2    1    2    0    0  0.75215931967E-01  0.13779876304E-01  0.11763992383E+02  0.11764778367E+02  0.11245402088E+00 0.  0.
       11    1    1    2    0    0 -0.61251259371E-01 -0.57739362866E-01  0.21959273358E+00  0.23517393704E+00  0.51109989000E-03 0.  1.
     -623    1    1    2    0    0 -0.13964672596E-01  0.43959486562E-01  0.16414872354E-01  0.25126747696E+02  0.25126700000E+02 0.  1.
     -611    1    3    3    0    0  0.27337566473E-03  0.19408808048E-01  0.44782349438E+00  0.44835550480E+00  0.10000000000E-01 0.  1.
      611    1    3    3    0    0  0.74942556303E-01 -0.56289317439E-02  0.11316168889E+02  0.11316422862E+02  0.10000000000E-01 0.  1.
</event>
<event>
 7   0  0.6206631E-02  0.9118800E+02  0.7818608E-02  0.1180000E+00
       11   -1    0    0    0    0  0.00000000000E+00  0.00000000000E+00  0.11999999989E+02  0.12000000000E+02  0.51109989000E-03 0. -1.
     -623   -1    0    0    0    0  0.00000000000E+00  0.00000000000E+00  0.42561509872E-11  0.25126700000E+02  0.25126700000E+02 0.  1.
      622    2    1    2    0    0 -0.57889742265E-02  0.67334851851E-02  0.10533840216E+02  0.10534260803E+02  0.93713028336E-01 0.  0.
       11    1    1    2    0    0  0.68270504356E-02 -0.84191427419E-02  0.14656989459E+01  0.14657391145E+01  0.51109989000E-03 0. -1.
     -623    1    1    2    0    0 -0.10380762091E-02  0.16856575568E-02  0.46082762569E-03  0.25126700082E+02  0.25126700000E+02 0.  1.
     -611    1    3    3    0    0 -0.36982836859E-01 -0.62693992277E-02  0.21758640979E+01  0.21762103777E+01  0.10000000000E-01 0.  1.
      611    1    3    3    0    0  0.31193862633E-01  0.13002884413E-01  0.83579761177E+01  0.83580504256E+01  0.10000000000E-01 0. -1.
</event>
<event>
 7   0  0.6206631E-02  0.9118800E+02  0.7818608E-02  0.1180000E+00
       11   -1    0    0    0    0  0.00000000000E+00  0.00000000000E+00  0.11999999989E+02  0.12000000000E+02  0.51109989000E-03 0. -1.
     -623   -1    0    0    0    0  0.00000000000E+00  0.00000000000E+00  0.42561509872E-11  0.25126700000E+02  0.25126700000E+02 0.  1.
      622    2    1    2    0    0  0.13852735471E-02 -0.13462355750E-02  0.11974527672E+02  0.11974951734E+02  0.10075873937E+00 0.  0.
       11    1    1    2    0    0 -0.25833500048E-02  0.42646735366E-03  0.24905747046E-01  0.25048214122E-01  0.51109989000E-03 0. -1.
     -623    1    1    2    0    0  0.11980764577E-02  0.91976822136E-03  0.56656959494E-03  0.25126700052E+02  0.25126700000E+02 0.  1.
     -611    1    3    3    0    0  0.47918375497E-02 -0.24694349684E-01  0.92893179429E+00  0.92932612739E+00  0.10000000000E-01 0.  1.
      611    1    3    3    0    0 -0.34065640026E-02  0.23348114109E-01  0.11045595878E+02  0.11045625607E+02  0.10000000000E-01 0. -1.
</event>
<event>
 7   0  0.6206631E-02  0.9118800E+02  0.7818608E-02  0.1180000E+00
       11   -1    0    0    0    0  0.00000000000E+00  0.00000000000E+00  0.11999999989E+02  0.12000000000E+02  0.51109989000E-03 0. -1.
     -623   -1    0    0    0    0  0.00000000000E+00  0.00000000000E+00  0.42561509872E-11  0.25126700000E+02  0.25126700000E+02 0. -1.
      622    2    1    2    0    0 -0.37467773121E-02  0.42427322970E-02  0.11960220239E+02  0.11960637387E+02  0.99732189294E-01 0.  0.
       11    1    1    2    0    0  0.23946494868E-03  0.12744421930E-01  0.37231639400E-01  0.39356496660E-01  0.51109989000E-03 0. -1.
     -623    1    1    2    0    0  0.35073123635E-02 -0.16987154227E-01  0.25481109840E-02  0.25126706116E+02  0.25126700000E+02 0. -1.
     -611    1    3    3    0    0 -0.27392132789E-01 -0.95361924943E-02  0.12464296281E+01  0.12468071566E+01  0.10000000000E-01 0.  1.
      611    1    3    3    0    0  0.23645355477E-01  0.13778924791E-01  0.10713790611E+02  0.10713830231E+02  0.10000000000E-01 0. -1.
</event>
<event>
 7   0  0.6206631E-02  0.9118800E+02  0.7818608E-02  0.1180000E+00
       11   -1    0    0    0    0  0.00000000000E+00  0.00000000000E+00  0.11999999989E+02  0.12000000000E+02  0.51109989000E-03 0.  1.
     -623   -1    0    0    0    0  0.00000000000E+00  0.00000000000E+00  0.42561509872E-11  0.25126700000E+02  0.25126700000E+02 0.  1.
      622    2    1    2    0    0  0.51860760395E-02  0.24125878911E-02  0.11889038550E+02  0.11889724230E+02  0.12756131616E+00 0.  0.
       11    1    1    2    0    0 -0.41019761096E-02 -0.14861839188E-02  0.11018819277E+00  0.11027571809E+00  0.51109989000E-03 0.  1.
     -623    1    1    2    0    0 -0.10840999299E-02 -0.92640397228E-03  0.77324609698E-03  0.25126700052E+02  0.25126700000E+02 0.  1.
     -611    1    3    3    0    0 -0.22752293509E-01 -0.21908229212E-01  0.10729396348E+02  0.10729447499E+02  0.10000000000E-01 0.  1.
      611    1    3    3    0    0  0.27938369548E-01  0.24320817103E-01  0.11596422025E+01  0.11602767310E+01  0.10000000000E-01 0. -1.
</event>
<event>
 7   0  0.6206631E-02  0.9118800E+02  0.7818608E-02  0.1180000E+00
       11   -1    0    0    0    0  0.00000000000E+00  0.00000000000E+00  0.11999999989E+02  0.12000000000E+02  0.51109989000E-03 0. -1.
     -623   -1    0    0    0    0  0.00000000000E+00  0.00000000000E+00  0.42561509872E-11  0.25126700000E+02  0.25126700000E+02 0. -1.
      622    2    1    2    0    0 -0.36640863242E-02 -0.11720262511E-03  0.11860660886E+02  0.11861006294E+02  0.90444532135E-01 0.  0.
       11    1    1    2    0    0  0.28301915614E-02 -0.25507715063E-03  0.13896369527E+00  0.13899368646E+00  0.51109989000E-03 0. -1.
     -623    1    1    2    0    0  0.83389476282E-03  0.37227977573E-03  0.37540766607E-03  0.25126700019E+02  0.25126700000E+02 0. -1.
     -611    1    3    3    0    0  0.33049147679E-01  0.26041033991E-01  0.66605150844E+01  0.66606554911E+01  0.10000000000E-01 0. -1.
      611    1    3    3    0    0 -0.36713234003E-01 -0.26158236616E-01  0.52001458018E+01  0.52003508030E+01  0.10000000000E-01 0.  1.
</event>
<event>
 7   0  0.6206631E-02  0.9118800E+02  0.7818608E-02  0.1180000E+00
       11   -1    0    0    0    0  0.00000000000E+00  0.00000000000E+00  0.11999999989E+02  0.12000000000E+02  0.51109989000E-03 0. -1.
     -623   -1    0    0    0    0  0.00000000000E+00  0.00000000000E+00  0.42561509872E-11  0.25126700000E+02  0.25126700000E+02 0. -1.
      622    2    1    2    0    0  0.22039453784E-02  0.78983047921E-03  0.10693620377E+02  0.10694032386E+02  0.93842620893E-01 0.  0.
       11    1    1    2    0    0 -0.16906196549E-02 -0.96860463912E-03  0.13059660509E+01  0.13059676044E+01  0.51109989000E-03 0. -1.
     -623    1    1    2    0    0 -0.51332572345E-03  0.17877415992E-03  0.41356151363E-03  0.25126700009E+02  0.25126700000E+02 0. -1.
     -611    1    3    3    0    0  0.21323822661E-01 -0.12215263423E-02  0.10083016357E+02  0.10083043937E+02  0.10000000000E-01 0. -1.
      611    1    3    3    0    0 -0.19119877283E-01  0.20113568215E-02  0.61060402006E+00  0.61098844881E+00  0.10000000000E-01 0.  1.
</event>
<event>
 7   0  0.6206631E-02  0.9118800E+02  0.7818608E-02  0.1180000E+00
       11   -1    0    0    0    0  0.00000000000E+00  0.00000000000E+00  0.11999999989E+02  0.12000000000E+02  0.51109989000E-03 0. -1.
     -623   -1    0    0    0    0  0.00000000000E+00  0.00000000000E+00  0.42561509872E-11  0.25126700000E+02  0.25126700000E+02 0.  1.
      622    2    1    2    0    0 -0.18333189438E-02 -0.78005381953E-02  0.10863262336E+02  0.10863524441E+02  0.75036656107E-01 0.  0.
       11    1    1    2    0    0 -0.12085371343E-01 -0.98423013200E-02  0.11363585087E+01  0.11364655070E+01  0.51109989000E-03 0. -1.
     -623    1    1    2    0    0  0.13918690287E-01  0.17642839515E-01  0.37914479953E-03  0.25126710052E+02  0.25126700000E+02 0.  1.
     -611    1    3    3    0    0  0.31300771986E-01  0.84553171320E-03  0.29778171560E+01  0.29779985674E+01  0.10000000000E-01 0.  1.
      611    1    3    3    0    0 -0.33134090929E-01 -0.86460699085E-02  0.78854451797E+01  0.78855258737E+01  0.10000000000E-01 0. -1.
</event>
<event>
 7   0  0.6206631E-02  0.9118800E+02  0.7818608E-02  0.1180000E+00
       11   -1    0    0    0    0  0.00000000000E+00  0.00000000000E+00  0.11999999989E+02  0.12000000000E+02  0.51109989000E-03 0. -1.
     -623   -1    0    0    0    0  0.00000000000E+00  0.00000000000E+00  0.42561509872E-11  0.25126700000E+02  0.25126700000E+02 0. -1.
      622    2    1    2    0    0 -0.34553222666E-01 -0.68250143004E-02  0.69209179545E+01  0.69211960690E+01  0.51080192411E-01 0.  0.
       11    1    1    2    0    0  0.12128396916E+00  0.99105364063E-02  0.50771958818E+01  0.50786539854E+01  0.51109989000E-03 0. -1.
     -623    1    1    2    0    0 -0.86730746493E-01 -0.30855221059E-02  0.18861528024E-02  0.25126849946E+02  0.25126700000E+02 0. -1.
     -611    1    3    3    0    0  0.58170621389E-02  0.80351376263E-02  0.29277298984E+01  0.29277637814E+01  0.10000000000E-01 0.  1.
      611    1    3    3    0    0 -0.40370284804E-01 -0.14860151927E-01  0.39931880561E+01  0.39934322876E+01  0.10000000000E-01 0. -1.
</event>
<event>
 7   0  0.6206631E-02  0.9118800E+02  0.7818608E-02  0.1180000E+00
       11   -1    0    0    0    0  0.00000000000E+00  0.00000000000E+00  0.11999999989E+02  0.12000000000E+02  0.51109989000E-03 0.  1.
     -623   -1    0    0    0    0  0.00000000000E+00  0.00000000000E+00  0.42561509872E-11  0.25126700000E+02  0.25126700000E+02 0. -1.
      622    2    1    2    0    0 -0.29678222091E-01  0.51220387263E-02  0.71918205588E+01  0.71926141311E+01  0.10250881374E+00 0.  0.
       11    1    1    2    0    0  0.36881717325E-01 -0.29832439702E-02  0.48072422967E+01  0.48073847278E+01  0.51109989000E-03 0.  1.
     -623    1    1    2    0    0 -0.72034952335E-02 -0.21387947561E-02  0.93713361967E-03  0.25126701141E+02  0.25126700000E+02 0. -1.
     -611    1    3    3    0    0 -0.63628013575E-01  0.90131218468E-02  0.33684646010E+01  0.33690923894E+01  0.10000000000E-01 0. -1.
      611    1    3    3    0    0  0.33949791484E-01 -0.38910831205E-02  0.38233559579E+01  0.38235217417E+01  0.10000000000E-01 0.  1.
</event>
<event>
 7   0  0.6206631E-02  0.9118800E+02  0.7818608E-02  0.1180000E+00
       11   -1    0    0    0    0  0.00000000000E+00  0.00000000000E+00  0.11999999989E+02  0.12000000000E+02  0.51109989000E-03 0. -1.
     -623   -1    0    0    0    0  0.00000000000E+00  0.00000000000E+00  0.42561509872E-11  0.25126700000E+02  0.25126700000E+02 0. -1.
      622    2    1    2    0    0  0.48775143761E-02  0.10442182408E-01  0.11907212393E+02  0.11907629917E+02  0.99047631064E-01 0.  0.
       11    1    1    2    0    0 -0.15141326544E-02 -0.10612021675E-01  0.91744306598E-01  0.92369836083E-01  0.51109989000E-03 0. -1.
     -623    1    1    2    0    0 -0.33633817217E-02  0.16983926699E-03  0.10432897058E-02  0.25126700247E+02  0.25126700000E+02 0. -1.
     -611    1    3    3    0    0 -0.10129546029E-01 -0.40413270743E-01  0.38903575146E+01  0.38905934550E+01  0.10000000000E-01 0.  1.
      611    1    3    3    0    0  0.15007060405E-01  0.50855453151E-01  0.80168548781E+01  0.80170364616E+01  0.10000000000E-01 0. -1.
</event>
<event>
 7   0  0.6206631E-02  0.9118800E+02  0.7818608E-02  0.1180000E+00
       11   -1    0    0    0    0  0.00000000000E+00  0.00000000000E+00  0.11999999989E+02  0.12000000000E+02  0.51109989000E-03 0. -1.
     -623   -1    0    0    0    0  0.00000000000E+00  0.00000000000E+00  0.42561509872E-11  0.25126700000E+02  0.25126700000E+02 0. -1.
      622    2    1    2    0    0 -0.57150078741E-03  0.36468279064E-02  0.11964686008E+02  0.11964995845E+02  0.86027226349E-01 0.  0.
       11    1    1    2    0    0 -0.49701876624E-03 -0.36907014925E-02  0.34801715102E-01  0.35004126933E-01  0.51109989000E-03 0. -1.
     -623    1    1    2    0    0  0.10685195537E-02  0.43873586111E-04  0.51226629878E-03  0.25126700028E+02  0.25126700000E+02 0. -1.
     -611    1    3    3    0    0 -0.15590214539E-01  0.16752291220E-01  0.10865109800E+01  0.10867979590E+01  0.10000000000E-01 0. -1.
      611    1    3    3    0    0  0.15018713751E-01 -0.13105463314E-01  0.10878175028E+02  0.10878197886E+02  0.10000000000E-01 0.  1.
</event>
<event>
 7   0  0.6206631E-02  0.9118800E+02  0.7818608E-02  0.1180000E+00
       11   -1    0    0    0    0  0.00000000000E+00  0.00000000000E+00  0.11999999989E+02  0.12000000000E+02  0.51109989000E-03 0. -1.
     -623   -1    0    0    0    0  0.00000000000E+00  0.00000000000E+00  0.42561509872E-11  0.25126700000E+02  0.25126700000E+02 0. -1.
      622    2    1    2    0    0  0.34215381556E-02  0.16724946399E-01  0.11370026306E+02  0.11370738060E+02  0.12607297165E+00 0.  0.
       11    1    1    2    0    0 -0.78925139478E-02 -0.16028511307E-01  0.62900762080E+00  0.62926151415E+00  0.51109989000E-03 0. -1.
     -623    1    1    2    0    0  0.44709757922E-02 -0.69643509198E-03  0.96606225342E-03  0.25126700426E+02  0.25126700000E+02 0. -1.
     -611    1    3    3    0    0  0.34697857606E-01  0.61288882057E-01  0.69908998547E+01  0.69912617636E+01  0.10000000000E-01 0. -1.
      611    1    3    3    0    0 -0.31276319451E-01 -0.44563935658E-01  0.43791264514E+01  0.43794762963E+01  0.10000000000E-01 0.  1.
</event>
<event>
 7   0  0.6206631E-02  0.9118800E+02  0.7818608E-02  0.1180000E+00
       11   -1    0    0    0    0  0.00000000000E+00  0.00000000000E+00  0.11999999989E+02  0.12000000000E+02  0.51109989000E-03 0. -1.
     -623   -1    0    0    0    0  0.00000000000E+00  0.00000000000E+00  0.42561509872E-11  0.25126700000E+02  0.25126700000E+02 0.  1.
      622    2    1    2    0    0 -0.25196874830E-01 -0.94547891904E-01  0.10729811987E+02  0.10730880016E+02  0.11552691941E+00 0.  0.
       11    1    1    2    0    0  0.21593763463E-01  0.84833681684E-01  0.12660947671E+01  0.12691175141E+01  0.51109989000E-03 0. -1.
     -623    1    1    2    0    0  0.36031113666E-02  0.97142102199E-02  0.40932353457E-02  0.25126702470E+02  0.25126700000E+02 0.  1.
     -611    1    3    3    0    0  0.19871875402E-01 -0.46814419829E-01  0.16260979536E+01  0.16269237954E+01  0.10000000000E-01 0.  1.
      611    1    3    3    0    0 -0.45068750232E-01 -0.47733472075E-01  0.91037140331E+01  0.91039562210E+01  0.10000000000E-01 0. -1.
</event>
<event>
 7   0  0.6206631E-02  0.9118800E+02  0.7818608E-02  0.1180000E+00
       11   -1    0    0    0    0  0.00000000000E+00  0.00000000000E+00  0.11999999989E+02  0.12000000000E+02  0.51109989000E-03 0.  1.
     -623   -1    0    0    0    0  0.00000000000E+00  0.00000000000E+00  0.42561509872E-11  0.25126700000E+02  0.25126700000E+02 0. -1.
      622    2    1    2    0    0  0.73285934578E-02  0.49565277858E-01  0.11387503464E+02  0.11388282596E+02  0.12342978244E+00 0.  0.
       11    1    1    2    0    0  0.86981085171E-02 -0.34928413356E-01  0.61064778550E+00  0.61170796162E+00  0.51109989000E-03 0.  1.
     -623    1    1    2    0    0 -0.16026701975E-01 -0.14636864502E-01  0.18487392723E-02  0.25126709442E+02  0.25126700000E+02 0. -1.
     -611    1    3    3    0    0 -0.13680563316E-01  0.87097032632E-01  0.72211059919E+01  0.72216511130E+01  0.10000000000E-01 0.  1.
      611    1    3    3    0    0  0.21009156773E-01 -0.37531754774E-01  0.41663974724E+01  0.41666314831E+01  0.10000000000E-01 0. -1.
</event>
<event>
 7   0  0.6206631E-02  0.9118800E+02  0.7818608E-02  0.1180000E+00
       11   -1    0    0    0    0  0.00000000000E+00  0.00000000000E+00  0.11999999989E+02  0.12000000000E+02  0.51109989000E-03 0. -1.
     -623   -1    0    0    0    0  0.00000000000E+00  0.00000000000E+00  0.42561509872E-11  0.25126700000E+02  0.25126700000E+02 0. -1.
      622    2    1    2    0    0 -0.10748376793E-01 -0.97818008763E-02  0.79007626738E+01  0.79014404945E+01  0.10246877828E+00 0.  0.
       11    1    1    2    0    0  0.11261828942E-01  0.29108267365E-02  0.40985420132E+01  0.40985585511E+01  0.51109989000E-03 0. -1.
     -623    1    1    2    0    0 -0.51345214940E-03  0.68709741398E-02  0.69530212747E-03  0.25126700954E+02  0.25126700000E+02 0. -1.
     -611    1    3    3    0    0  0.38672442005E-01 -0.24117053937E-01  0.26002650209E+01  0.26006836349E+01  0.10000000000E-01 0.  1.
      611    1    3    3    0    0 -0.49420818798E-01  0.14335253061E-01  0.53004976529E+01  0.53007568597E+01  0.10000000000E-01 0. -1.
</event>
<event>
 7   0  0.6206631E-02  0.9118800E+02  0.7818608E-02  0.1180000E+00
       11   -1    0    0    0    0  0.00000000000E+00  0.00000000000E+00  0.11999999989E+02  0.12000000000E+02  0.51109989000E-03 0.  1.
     -623   -1    0    0    0    0  0.00000000000E+00  0.00000000000E+00  0.42561509872E-11  0.25126700000E+02  0.25126700000E+02 0. -1.
      622    2    1    2    0    0  0.14998050668E-01 -0.10855073091E-01  0.11297622141E+02  0.11298899216E+02  0.16886285993E+00 0.  0.
       11    1    1    2    0    0 -0.63488402828E-01 -0.43103709603E-01  0.69678234148E+00  0.70099543486E+00  0.51109989000E-03 0.  1.
     -623    1    1    2    0    0  0.48490352160E-01  0.53958782695E-01  0.55955062810E-02  0.25126805349E+02  0.25126700000E+02 0. -1.
     -611    1    3    3    0    0  0.44196358490E-01 -0.37222721231E-01  0.14400672103E+01  0.14412607048E+01  0.10000000000E-01 0. -1.
      611    1    3    3    0    0 -0.29198307822E-01  0.26367648139E-01  0.98575549311E+01  0.98576385110E+01  0.10000000000E-01 0.  1.
</event>
<event>
 7   0  0.6206631E-02  0.9118800E+02  0.7818608E-02  0.1180000E+00
       11   -1    0    0    0    0  0.00000000000E+00  0.00000000000E+00  0.11999999989E+02  0.12000000000E+02  0.51109989000E-03 0.  1.
     -623   -1    0    0    0    0  0.00000000000E+00  0.00000000000E+00  0.42561509872E-11  0.25126700000E+02  0.25126700000E+02 0. -1.
      622    2    1    2    0    0  0.19023397222E-02 -0.21199314210E-02  0.11992214852E+02  0.11992504029E+02  0.83232937013E-01 0.  0.
       11    1    1    2    0    0  0.27915158773E-02  0.65265267127E-03  0.69066916815E-02  0.74954739364E-02  0.51109989000E-03 0.  1.
     -623    1    1    2    0    0 -0.46938555996E-02  0.14672787497E-02  0.87844523511E-03  0.25126700497E+02  0.25126700000E+02 0. -1.
     -611    1    3    3    0    0  0.27012317274E-01 -0.20743531989E-01  0.27265911351E+01  0.27268221756E+01  0.10000000000E-01 0. -1.
      611    1    3    3    0    0 -0.25109977552E-01  0.18623600568E-01  0.92656237170E+01  0.92656818537E+01  0.10000000000E-01 0.  1.
</event>
<event>
 7   0  0.6206631E-02  0.9118800E+02  0.7818608E-02  0.1180000E+00
       11   -1    0    0    0    0  0.00000000000E+00  0.00000000000E+00  0.11999999989E+02  0.12000000000E+02  0.51109989000E-03 0.  1.
     -623   -1    0    0    0    0  0.00000000000E+00  0.00000000000E+00  0.42561509872E-11  0.25126700000E+02  0.25126700000E+02 0.  1.
      622    2    1    2    0    0 -0.15819475205E+00  0.15662756177E-02  0.58385406395E+01  0.58413926066E+01  0.91009632610E-01 0.  0.
       11    1    1    2    0    0  0.79460142874E-01 -0.23331365366E+00  0.61524787290E+01  0.61574137386E+01  0.51109989000E-03 0.  1.
     -623    1    1    2    0    0  0.78734609171E-01  0.23174737804E+00  0.89806206077E-02  0.25127893655E+02  0.25126700000E+02 0.  1.
     -611    1    3    3    0    0 -0.29485757705E-01  0.24499642279E-01  0.65713186521E+00  0.65832509496E+00  0.10000000000E-01 0. -1.
      611    1    3    3    0    0 -0.12870899434E+00 -0.22933366661E-01  0.51814087743E+01  0.51830675117E+01  0.10000000000E-01 0.  1.
</event>
<event>
 7   0  0.6206631E-02  0.9118800E+02  0.7818608E-02  0.1180000E+00
       11   -1    0    0    0    0  0.00000000000E+00  0.00000000000E+00  0.11999999989E+02  0.12000000000E+02  0.51109989000E-03 0.  1.
     -623   -1    0    0    0    0  0.00000000000E+00  0.00000000000E+00  0.42561509872E-11  0.25126700000E+02  0.25126700000E+02 0. -1.
      622    2    1    2    0    0 -0.73643367290E-02 -0.29145739644E-02  0.11784346155E+02  0.11784571230E+02  0.72402010885E-01 0.  0.
       11    1    1    2    0    0 -0.37987583731E-02  0.61884148505E-03  0.21539119285E+00  0.21542618390E+00  0.51109989000E-03 0.  1.
     -623    1    1    2    0    0  0.11163095102E-01  0.22957324794E-02  0.26264137169E-03  0.25126702586E+02  0.25126700000E+02 0. -1.
     -611    1    3    3    0    0  0.10033471922E-01 -0.19126890737E-01  0.10095451435E+02  0.10095479493E+02  0.10000000000E-01 0.  1.
      611    1    3    3    0    0 -0.17397808651E-01  0.16212316773E-01  0.16888947195E+01  0.16890917372E+01  0.10000000000E-01 0. -1.
</event>
<event>
 7   0  0.6206631E-02  0.9118800E+02  0.7818608E-02  0.1180000E+00
       11   -1    0    0    0    0  0.00000000000E+00  0.00000000000E+00  0.11999999989E+02  0.12000000000E+02  0.51109989000E-03 0. -1.
     -623   -1    0    0    0    0  0.00000000000E+00  0.00000000000E+00  0.42561509872E-11  0.25126700000E+02  0.25126700000E+02 0. -1.
      622    2    1    2    0    0 -0.61483523527E-02 -0.75816270261E-02  0.11867764215E+02  0.11868239099E+02  0.10571921852E+00 0.  0.
       11    1    1    2    0    0  0.11515321404E-01 -0.78609828831E-02  0.13101475823E+00  0.13175555311E+00  0.51109989000E-03 0. -1.
     -623    1    1    2    0    0 -0.53669690511E-02  0.15442609909E-01  0.12210157920E-02  0.25126705348E+02  0.25126700000E+02 0. -1.
     -611    1    3    3    0    0  0.31608987338E-01 -0.24630373824E-01  0.95104059389E+01  0.95104956184E+01  0.10000000000E-01 0. -1.
      611    1    3    3    0    0 -0.37757339690E-01  0.17048746798E-01  0.23573582762E+01  0.23577434803E+01  0.10000000000E-01 0. -1.
</event>
<event>
 7   0  0.6206631E-02  0.9118800E+02  0.7818608E-02  0.1180000E+00
       11   -1    0    0    0    0  0.00000000000E+00  0.00000000000E+00  0.11999999989E+02  0.12000000000E+02  0.51109989000E-03 0. -1.
     -623   -1    0    0    0    0  0.00000000000E+00  0.00000000000E+00  0.42561509872E-11  0.25126700000E+02  0.25126700000E+02 0. -1.
      622    2    1    2    0    0 -0.96920442699E-02  0.11628899579E-02  0.11840767064E+02  0.11841220386E+02  0.10315166655E+00 0.  0.
       11    1    1    2    0    0  0.28942299294E-02  0.83063725557E-02  0.15853223817E+00  0.15877690057E+00  0.51109989000E-03 0. -1.
     -623    1    1    2    0    0  0.67978143405E-02 -0.94692625135E-02  0.70068664103E-03  0.25126702714E+02  0.25126700000E+02 0. -1.
     -611    1    3    3    0    0  0.24221888900E-02 -0.44178340385E-01  0.32165660605E+01  0.32168858877E+01  0.10000000000E-01 0.  1.
      611    1    3    3    0    0 -0.12114233160E-01  0.45341230343E-01  0.86242010038E+01  0.86243344981E+01  0.10000000000E-01 0. -1.
</event>
<event>
 7   0  0.6206631E-02  0.9118800E+02  0.7818608E-02  0.1180000E+00
       11   -1    0    0    0    0  0.00000000000E+00  0.00000000000E+00  0.11999999989E+02  0.12000000000E+02  0.51109989000E-03 0. -1.
     -623   -1    0    0    0    0  0.00000000000E+00  0.00000000000E+00  0.42561509872E-11  0.25126700000E+02  0.25126700000E+02 0.  1.
      622    2    1    2    0    0 -0.39413927342E-02  0.60091082249E-02  0.11930181243E+02  0.11930584875E+02  0.97874050605E-01 0.  0.
       11    1    1    2    0    0  0.11839363255E-02  0.10804129029E-02  0.69393580318E-01  0.69413969846E-01  0.51109989000E-03 0. -1.
     -623    1    1    2    0    0  0.27574564087E-02 -0.70895211277E-02  0.42516591590E-03  0.25126701155E+02  0.25126700000E+02 0.  1.
     -611    1    3    3    0    0 -0.20149082173E-01  0.34877267652E-01  0.10049359140E+02  0.10049444837E+02  0.10000000000E-01 0. -1.
      611    1    3    3    0    0  0.16207689439E-01 -0.28868159427E-01  0.18808221027E+01  0.18811400378E+01  0.10000000000E-01 0. -1.
</event>
<event>
 7   0  0.6206631E-02  0.9118800E+02  0.7818608E-02  0.1180000E+00
       11   -1    0    0    0    0  0.00000000000E+00  0.00000000000E+00  0.11999999989E+02  0.12000000000E+02  0.51109989000E-03 0. -1.
     -623   -1    0    0    0    0  0.00000000000E+00  0.00000000000E+00  0.42561509872E-11  0.25126700000E+02  0.25126700000E+02 0. -1.
      622    2    1    2    0    0 -0.66649952027E-02  0.30188276576E-01  0.11851060902E+02  0.11851419632E+02  0.86873603270E-01 0.  0.
       11    1    1    2    0    0  0.11982738984E-01  0.12443592704E-01  0.14753477877E+00  0.14854360034E+00  0.51109989000E-03 0. -1.
     -623    1    1    2    0    0 -0.53177437810E-02 -0.42631869281E-01  0.14043082822E-02  0.25126736768E+02  0.25126700000E+02 0. -1.
     -611    1    3    3    0    0 -0.32879370862E-01  0.46904129632E-02  0.94136451627E+01  0.94137090619E+01  0.10000000000E-01 0. -1.
      611    1    3    3    0    0  0.26214375659E-01  0.25497863613E-01  0.24374157394E+01  0.24377105696E+01  0.10000000000E-01 0.  1.
</event>
<event>
 7   0  0.6206631E-02  0.9118800E+02  0.7818608E-02  0.1180000E+00
       11   -1    0    0    0    0  0.00000000000E+00  0.00000000000E+00  0.11999999989E+02  0.12000000000E+02  0.51109989000E-03 0.  1.
     -623   -1    0    0    0    0  0.00000000000E+00  0.00000000000E+00  0.42561509872E-11  0.25126700000E+02  0.25126700000E+02 0. -1.
      622    2    1    2    0    0  0.17780617885E-01  0.10313913842E-01  0.11937268684E+02  0.11937890767E+02  0.12012405079E+00 0.  0.
       11    1    1    2    0    0 -0.18425576388E-01 -0.16451684799E-02  0.59286348356E-01  0.62107493663E-01  0.51109989000E-03 0.  1.
     -623    1    1    2    0    0  0.64495850342E-03 -0.86687453625E-02  0.34449565542E-02  0.25126701740E+02  0.25126700000E+02 0. -1.
     -611    1    3    3    0    0  0.66138717940E-01  0.15043720137E-01  0.83108985668E+01  0.83111813620E+01  0.10000000000E-01 0.  1.
      611    1    3    3    0    0 -0.48358100055E-01 -0.47298062950E-02  0.36263701174E+01  0.36267094046E+01  0.10000000000E-01 0. -1.
</event>
<event>
 7   0  0.6206631E-02  0.9118800E+02  0.7818608E-02  0.1180000E+00
       11   -1    0    0    0    0  0.00000000000E+00  0.00000000000E+00  0.11999999989E+02  0.12000000000E+02  0.51109989000E-03 0.  1.
     -623   -1    0    0    0    0  0.00000000000E+00  0.00000000000E+00  0.42561509872E-11  0.25126700000E+02  0.25126700000E+02 0. -1.
      622    2    1    2    0    0 -0.67531661764E-02 -0.52067714980E-03  0.11873950456E+02  0.11874910147E+02  0.15081676108E+00 0.  0.
       11    1    1    2    0    0  0.45814623598E-02 -0.20756594157E-02  0.12498739638E+00  0.12508960243E+00  0.51109989000E-03 0.  1.
     -623    1    1    2    0    0  0.21717038166E-02  0.25963365655E-02  0.10621367781E-02  0.25126700250E+02  0.25126700000E+02 0. -1.
     -611    1    3    3    0    0  0.50081979733E-01  0.24161706489E-01  0.93795539098E+01  0.93797240652E+01  0.10000000000E-01 0.  1.
      611    1    3    3    0    0 -0.56835145909E-01 -0.24682383639E-01  0.24943965462E+01  0.24951860819E+01  0.10000000000E-01 0. -1.
</event>
<event>
 7   0  0.6206631E-02  0.9118800E+02  0.7818608E-02  0.1180000E+00
       11   -1    0    0    0    0  0.00000000000E+00  0.00000000000E+00  0.11999999989E+02  0.12000000000E+02  0.51109989000E-03 0. -1.
     -623   -1    0    0    0    0  0.00000000000E+00  0.00000000000E+00  0.42561509872E-11  0.25126700000E+02  0.25126700000E+02 0. -1.
      622    2    1    2    0    0  0.55580434295E-01  0.10375731131E+00  0.70957326709E+01  0.70976866637E+01  0.11780948679E+00 0.  0.
       11    1    1    2    0    0 -0.58953653014E-01 -0.91142551861E-01  0.49011078415E+01  0.49023097447E+01  0.51109989000E-03 0. -1.
     -623    1    1    2    0    0  0.33732187184E-02 -0.12614759449E-01  0.31594768230E-02  0.25126703592E+02  0.25126700000E+02 0. -1.
     -611    1    3    3    0    0 -0.30774095858E-01  0.41703876000E-01  0.14857835883E+01  0.14867209319E+01  0.10000000000E-01 0.  1.
      611    1    3    3    0    0  0.86354530153E-01  0.62053435311E-01  0.56099490826E+01  0.56109657318E+01  0.10000000000E-01 0. -1.
</event>
<event>
 7   0  0.6206631E-02  0.9118800E+02  0.7818608E-02  0.1180000E+00
       11   -1    0    0    0    0  0.00000000000E+00  0.00000000000E+00  0.11999999989E+02  0.12000000000E+02  0.51109989000E-03 0. -1.
     -623   -1    0    0    0    0  0.00000000000E+00  0.00000000000E+00  0.42561509872E-11  0.25126700000E+02  0.25126700000E+02 0. -1.
      622    2    1    2    0    0  0.13927044221E-01  0.66003828504E-02  0.11353053006E+02  0.11353529577E+02  0.10287735830E+00 0.  0.
       11    1    1    2    0    0 -0.10342477105E-01 -0.82792461658E-02  0.64633414090E+00  0.64647010423E+00  0.51109989000E-03 0. -1.
     -623    1    1    2    0    0 -0.35845671156E-02  0.16788633153E-02  0.61284180553E-03  0.25126700319E+02  0.25126700000E+02 0. -1.
     -611    1    3    3    0    0 -0.76785021975E-02 -0.45165571459E-01  0.48187702125E+01  0.48189983658E+01  0.10000000000E-01 0. -1.
      611    1    3    3    0    0  0.21605546418E-01  0.51765954310E-01  0.65342827939E+01  0.65345312108E+01  0.10000000000E-01 0.  1.
</event>
<event>
 7   0  0.6206631E-02  0.9118800E+02  0.7818608E-02  0.1180000E+00
       11   -1    0    0    0    0  0.00000000000E+00  0.00000000000E+00  0.11999999989E+02  0.12000000000E+02  0.51109989000E-03 0. -1.
     -623   -1    0    0    0    0  0.00000000000E+00  0.00000000000E+00  0.42561509872E-11  0.25126700000E+02  0.25126700000E+02 0. -1.
      622    2    1    2    0    0  0.10923173306E-01 -0.28015251805E-02  0.11772148482E+02  0.11772798314E+02  0.12317909750E+00 0.  0.
       11    1    1    2    0    0 -0.12373039207E-01  0.14021514531E-02  0.22685951842E+00  0.22720158549E+00  0.51109989000E-03 0. -1.
     -623    1    1    2    0    0  0.14498659012E-02  0.13993737273E-02  0.99198833290E-03  0.25126700100E+02  0.25126700000E+02 0. -1.
     -611    1    3    3    0    0 -0.39169817026E-03 -0.45052611839E-01  0.19451848625E+01  0.19457322633E+01  0.10000000000E-01 0.  1.
      611    1    3    3    0    0  0.11314871476E-01  0.42251086659E-01  0.98269636199E+01  0.98270660508E+01  0.10000000000E-01 0. -1.
</event>
<event>
 7   0  0.6206631E-02  0.9118800E+02  0.7818608E-02  0.1180000E+00
       11   -1    0    0    0    0  0.00000000000E+00  0.00000000000E+00  0.11999999989E+02  0.12000000000E+02  0.51109989000E-03 0.  1.
     -623   -1    0    0    0    0  0.00000000000E+00  0.00000000000E+00  0.42561509872E-11  0.25126700000E+02  0.25126700000E+02 0. -1.
      622    2    1    2    0    0 -0.10778988703E-02  0.15721939217E-02  0.11998806990E+02  0.11999140278E+02  0.89412500577E-01 0.  0.
       11    1    1    2    0    0 -0.48938238901E-04  0.52858905900E-04  0.68743576235E-03  0.85963948598E-03  0.51109989000E-03 0.  1.
     -623    1    1    2    0    0  0.11268371092E-02 -0.16250528276E-02  0.50556379110E-03  0.25126700083E+02  0.25126700000E+02 0. -1.
     -611    1    3    3    0    0 -0.42275625192E-01 -0.37583191950E-02  0.44902057631E+01  0.44904174805E+01  0.10000000000E-01 0. -1.
      611    1    3    3    0    0  0.41197726322E-01  0.53305131166E-02  0.75086012264E+01  0.75087227972E+01  0.10000000000E-01 0.  1.
</event>
<event>
 7   0  0.6206631E-02  0.9118800E+02  0.7818608E-02  0.1180000E+00
       11   -1    0    0    0    0  0.00000000000E+00  0.00000000000E+00  0.11999999989E+02  0.12000000000E+02  0.51109989000E-03 0. -1.
     -623   -1    0    0    0    0  0.00000000000E+00  0.00000000000E+00  0.42561509872E-11  0.25126700000E+02  0.25126700000E+02 0.  1.
      622    2    1    2    0    0  0.32826207983E-03  0.18461255407E-01  0.11515833447E+02  0.11516717877E+02  0.14152654410E+00 0.  0.
       11    1    1    2    0    0 -0.23274216383E-01 -0.19207336063E-01  0.48232824482E+00  0.48327156743E+00  0.51109989000E-03 0. -1.
     -623    1    1    2    0    0  0.22945954303E-01  0.74608065610E-03  0.18382976746E-02  0.25126710556E+02  0.25126700000E+02 0.  1.
     -611    1    3    3    0    0  0.46694175451E-01 -0.38133485651E-01  0.34053781922E+01  0.34059264732E+01  0.10000000000E-01 0.  1.
      611    1    3    3    0    0 -0.46365913371E-01  0.56594741057E-01  0.81104552544E+01  0.81107914039E+01  0.10000000000E-01 0. -1.
</event>
<event>
 7   0  0.6206631E-02  0.9118800E+02  0.7818608E-02  0.1180000E+00
       11   -1    0    0    0    0  0.00000000000E+00  0.00000000000E+00  0.11999999989E+02  0.12000000000E+02  0.51109989000E-03 0. -1.
     -623   -1    0    0    0    0  0.00000000000E+00  0.00000000000E+00  0.42561509872E-11  0.25126700000E+02  0.25126700000E+02 0. -1.
      622    2    1    2    0    0 -0.12984532500E-01 -0.29384957464E-02  0.10867323726E+02  0.10867444115E+02  0.49390188344E-01 0.  0.
       11    1    1    2    0    0  0.15902510626E-01  0.39854269330E-02  0.11324369128E+01  0.11325556923E+01  0.51109989000E-03 0. -1.
     -623    1    1    2    0    0 -0.29179781256E-02 -0.10469311866E-02  0.23934984928E-03  0.25126700192E+02  0.25126700000E+02 0. -1.
     -611    1    3    3    0    0 -0.23779564802E-01 -0.16540174109E-01  0.72692887099E+01  0.72693532995E+01  0.10000000000E-01 0. -1.
      611    1    3    3    0    0  0.10795032302E-01  0.13601678362E-01  0.35980350165E+01  0.35980908157E+01  0.10000000000E-01 0.  1.
</event>
<event>
 7   0  0.6206631E-02  0.9118800E+02  0.7818608E-02  0.1180000E+00
       11   -1    0    0    0    0  0.00000000000E+00  0.00000000000E+00  0.11999999989E+02  0.12000000000E+02  0.51109989000E-03 0. -1.
     -623   -1    0    0    0    0  0.00000000000E+00  0.00000000000E+00  0.42561509872E-11  0.25126700000E+02  0.25126700000E+02 0. -1.
      622    2    1    2    0    0 -0.22150478414E-01 -0.60163206529E-02  0.11878080323E+02  0.11878517103E+02  0.99244990614E-01 0.  0.
       11    1    1    2    0    0  0.20041588797E-01  0.11959154661E-02  0.11981061006E+00  0.12148225797E+00  0.51109989000E-03 0. -1.
     -623    1    1    2    0    0  0.21088896178E-02  0.48204051868E-02  0.21090564827E-02  0.25126700639E+02  0.25126700000E+02 0. -1.
     -611    1    3    3    0    0  0.10405844143E-01 -0.34231708530E-01  0.20455400357E+01  0.20458773495E+01  0.10000000000E-01 0.  1.
      611    1    3    3    0    0 -0.32556322557E-01  0.28215387877E-01  0.98325402868E+01  0.98326397531E+01  0.10000000000E-01 0. -1.
</event>
<event>
 7   0  0.6206631E-02  0.9118800E+02  0.7818608E-02  0.1180000E+00
       11   -1    0    0    0    0  0.00000000000E+00  0.00000000000E+00  0.11999999989E+02  0.12000000000E+02  0.51109989000E-03 0. -1.
     -623   -1    0    0    0    0  0.00000000000E+00  0.00000000000E+00  0.42561509872E-11  0.25126700000E+02  0.25126700000E+02 0. -1.
      622    2    1    2    0    0 -0.32072779908E-01  0.42109183518E-02  0.10529714593E+02  0.10530121022E+02  0.86677231233E-01 0.  0.
       11    1    1    2    0    0  0.37669700760E-01  0.36269749566E-02  0.14693897758E+01  0.14698771158E+01  0.51109989000E-03 0. -1.
     -623    1    1    2    0    0 -0.55969208523E-02 -0.78378933083E-02  0.89562040921E-03  0.25126701862E+02  0.25126700000E+02 0. -1.
     -611    1    3    3    0    0  0.14004375373E-01  0.11288125195E-01  0.72894685538E+00  0.72923731546E+00  0.10000000000E-01 0.  1.
      611    1    3    3    0    0 -0.46077155281E-01 -0.70772068436E-02  0.98007677376E+01  0.98008837069E+01  0.10000000000E-01 0. -1.
</event>
<event>
 7   0  0.6206631E-02  0.9118800E+02  0.7818608E-02  0.1180000E+00
       11   -1    0    0    0    0  0.00000000000E+00  0.00000000000E+00  0.11999999989E+02  0.12000000000E+02  0.51109989000E-03 0.  1.
     -623   -1    0    0    0    0  0.00000000000E+00  0.00000000000E+00  0.42561509872E-11  0.25126700000E+02  0.25126700000E+02 0.  1.
      622    2    1    2    0    0  0.77987598370E-02 -0.57684357662E-01  0.11419207743E+02  0.11420903438E+02  0.18799347761E+00 0.  0.
       11    1    1    2    0    0 -0.22774556676E-01  0.66493533093E-01  0.57480841530E+00  0.57908984268E+00  0.51109989000E-03 0.  1.
     -623    1    1    2    0    0  0.14975796839E-01 -0.88091754311E-02  0.59838307014E-02  0.25126706720E+02  0.25126700000E+02 0.  1.
     -611    1    3    3    0    0 -0.24510787257E-01 -0.56652179181E-01  0.11915321244E+01  0.11931718450E+01  0.10000000000E-01 0. -1.
      611    1    3    3    0    0  0.32309547094E-01 -0.10321784813E-02  0.10227675619E+02  0.10227731593E+02  0.10000000000E-01 0.  1.
</event>
<event>
 7   0  0.6206631E-02  0.9118800E+02  0.7818608E-02  0.1180000E+00
       11   -1    0    0    0    0  0.00000000000E+00  0.00000000000E+00  0.11999999989E+02  0.12000000000E+02  0.51109989000E-03 0.  1.
     -623   -1    0    0    0    0  0.00000000000E+00  0.00000000000E+00  0.42561509872E-11  0.25126700000E+02  0.25126700000E+02 0.  1.
      622    2    1    2    0    0 -0.14301745344E-01 -0.18670685613E+00  0.49209667268E+01  0.49259395475E+01  0.11791059886E+00 0.  0.
       11    1    1    2    0    0  0.37377216384E-01  0.17831051738E+00  0.70717009575E+01  0.70740473839E+01  0.51109989000E-03 0.  1.
     -623    1    1    2    0    0 -0.23075471040E-01  0.83963387548E-02  0.73323048132E-02  0.25126713069E+02  0.25126700000E+02 0.  1.
     -611    1    3    3    0    0 -0.34908771876E-01 -0.17371945472E+00  0.33075456176E+01  0.33123035917E+01  0.10000000000E-01 0. -1.
      611    1    3    3    0    0  0.20607026531E-01 -0.12987401412E-01  0.16134211092E+01  0.16136359558E+01  0.10000000000E-01 0.  1.
</event>
<event>
 7   0  0.6206631E-02  0.9118800E+02  0.7818608E-02  0.1180000E+00
       11   -1    0    0    0    0  0.00000000000E+00  0.00000000000E+00  0.11999999989E+02  0.12000000000E+02  0.51109989000E-03 0.  1.
     -623   -1    0    0    0    0  0.00000000000E+00  0.00000000000E+00  0.42561509872E-11  0.25126700000E+02  0.25126700000E+02 0. -1.
      622    2    1    2    0    0  0.31568615839E-02 -0.55765740547E-02  0.11958847977E+02  0.11959484634E+02  0.12323442930E+00 0.  0.
       11    1    1    2    0    0 -0.21926331968E-01 -0.58545737817E-02  0.33545813960E-01  0.40504603752E-01  0.51109989000E-03 0.  1.
     -623    1    1    2    0    0  0.18769470384E-01  0.11431147836E-01  0.76061983486E-02  0.25126710762E+02  0.25126700000E+02 0. -1.
     -611    1    3    3    0    0 -0.21291689457E-01  0.19409550419E-01  0.10845908362E+02  0.10845951238E+02  0.10000000000E-01 0.  1.
      611    1    3    3    0    0  0.24448551041E-01 -0.24986124473E-01  0.11129396146E+01  0.11135333959E+01  0.10000000000E-01 0. -1.
</event>
<event>
 7   0  0.6206631E-02  0.9118800E+02  0.7818608E-02  0.1180000E+00
       11   -1    0    0    0    0  0.00000000000E+00  0.00000000000E+00  0.11999999989E+02  0.12000000000E+02  0.51109989000E-03 0. -1.
     -623   -1    0    0    0    0  0.00000000000E+00  0.00000000000E+00  0.42561509872E-11  0.25126700000E+02  0.25126700000E+02 0.  1.
      622    2    1    2    0    0  0.19819990135E-01 -0.19857374358E-01  0.10287093306E+02  0.10287556099E+02  0.93459401770E-01 0.  0.
       11    1    1    2    0    0 -0.21724336900E-01  0.19614525362E-01  0.17121935905E+01  0.17124438178E+01  0.51109989000E-03 0. -1.
     -623    1    1    2    0    0  0.19043467651E-02  0.24284899608E-03  0.71309300371E-03  0.25126700083E+02  0.25126700000E+02 0.  1.
     -611    1    3    3    0    0  0.82832267547E-02  0.16032813728E-01  0.55311295263E+00  0.55349760733E+00  0.10000000000E-01 0.  1.
      611    1    3    3    0    0  0.11536763380E-01 -0.35890188086E-01  0.97339803529E+01  0.97340584914E+01  0.10000000000E-01 0. -1.
</event>
<event>
 7   0  0.6206631E-02  0.9118800E+02  0.7818608E-02  0.1180000E+00
       11   -1    0    0    0    0  0.00000000000E+00  0.00000000000E+00  0.11999999989E+02  0.12000000000E+02  0.51109989000E-03 0. -1.
     -623   -1    0    0    0    0  0.00000000000E+00  0.00000000000E+00  0.42561509872E-11  0.25126700000E+02  0.25126700000E+02 0. -1.
      622    2    1    2    0    0 -0.55376213458E-03  0.14447462992E-02  0.11359257216E+02  0.11359404898E+02  0.57902832827E-01 0.  0.
       11    1    1    2    0    0  0.27956939851E-02 -0.77408121640E-03  0.64058822075E+00  0.64059499287E+00  0.51109989000E-03 0. -1.
     -623    1    1    2    0    0 -0.22419318505E-02 -0.67066508279E-03  0.15455244604E-03  0.25126700109E+02  0.25126700000E+02 0. -1.
     -611    1    3    3    0    0 -0.32757355946E-02  0.11874795439E-01  0.10563118723E+02  0.10563130639E+02  0.10000000000E-01 0. -1.
      611    1    3    3    0    0  0.27219734600E-02 -0.10430049139E-01  0.79613849290E+00  0.79627425862E+00  0.10000000000E-01 0.  1.
</event>
<event>
 7   0  0.6206631E-02  0.9118800E+02  0.7818608E-02  0.1180000E+00
       11   -1    0    0    0    0  0.00000000000E+00  0.00000000000E+00  0.11999999989E+02  0.12000000000E+02  0.51109989000E-03 0. -1.
     -623   -1    0    0    0    0  0.00000000000E+00  0.00000000000E+00  0.42561509872E-11  0.25126700000E+02  0.25126700000E+02 0.  1.
      622    2    1    2    0    0  0.41530737554E-01  0.56235864200E-01  0.11715080412E+02  0.11715726045E+02  0.10119499713E+00 0.  0.
       11    1    1    2    0    0 -0.49616239272E-01  0.12833715686E-01  0.27951728344E+00  0.28417714268E+00  0.51109989000E-03 0. -1.
     -623    1    1    2    0    0  0.80855017175E-02 -0.69069579885E-01  0.54022938747E-02  0.25126796813E+02  0.25126700000E+02 0.  1.
     -611    1    3    3    0    0 -0.21849542445E-01  0.32916032387E-01  0.20530931424E+01  0.20534975819E+01  0.10000000000E-01 0.  1.
      611    1    3    3    0    0  0.63380280000E-01  0.23319831812E-01  0.96619872694E+01  0.96622284629E+01  0.10000000000E-01 0. -1.
</event>
<event>
 7   0  0.6206631E-02  0.9118800E+02  0.7818608E-02  0.1180000E+00
       11   -1    0    0    0    0  0.00000000000E+00  0.00000000000E+00  0.11999999989E+02  0.12000000000E+02  0.51109989000E-03 0. -1.
     -623   -1    0    0    0    0  0.00000000000E+00  0.00000000000E+00  0.42561509872E-11  0.25126700000E+02  0.25126700000E+02 0. -1.
      622    2    1    2    0    0  0.30401460857E-02 -0.61609135546E-01  0.81295799156E+01  0.81304652884E+01  0.10291391342E+00 0.  0.
       11    1    1    2    0    0 -0.65798574944E-01  0.69335254283E-01  0.38682742079E+01  0.38694550570E+01  0.51109989000E-03 0. -1.
     -623    1    1    2    0    0  0.62758428858E-01 -0.77261187372E-02  0.21458656276E-02  0.25126779655E+02  0.25126700000E+02 0. -1.
     -611    1    3    3    0    0 -0.23070897008E-01 -0.79816934054E-01  0.65388773984E+01  0.65394128667E+01  0.10000000000E-01 0. -1.
      611    1    3    3    0    0  0.26111043094E-01  0.18207798508E-01  0.15907025172E+01  0.15910524218E+01  0.10000000000E-01 0.  1.
</event>
<event>
 7   0  0.6206631E-02  0.9118800E+02  0.7818608E-02  0.1180000E+00
       11   -1    0    0    0    0  0.00000000000E+00  0.00000000000E+00  0.11999999989E+02  0.12000000000E+02  0.51109989000E-03 0.  1.
     -623   -1    0    0    0    0  0.00000000000E+00  0.00000000000E+00  0.42561509872E-11  0.25126700000E+02  0.25126700000E+02 0. -1.
      622    2    1    2    0    0 -0.16411403416E-04  0.23946086695E-02  0.11994896826E+02  0.11995393667E+02  0.10914954494E+00 0.  0.
       11    1    1    2    0    0  0.18093096813E-02  0.78752549941E-03  0.41304551878E-02  0.46060483220E-02  0.51109989000E-03 0.  1.
     -623    1    1    2    0    0 -0.17928982779E-02 -0.31821341690E-02  0.97270744832E-03  0.25126700284E+02  0.25126700000E+02 0. -1.
     -611    1    3    3    0    0 -0.42690452729E-01  0.28774893507E-01  0.79564612158E+01  0.79566340589E+01  0.10000000000E-01 0.  1.
      611    1    3    3    0    0  0.42674041325E-01 -0.26380284838E-01  0.40384356107E+01  0.40387596085E+01  0.10000000000E-01 0. -1.
</event>
<event>
 7   0  0.6206631E-02  0.9118800E+02  0.7818608E-02  0.1180000E+00
       11   -1    0    0    0    0  0.00000000000E+00  0.00000000000E+00  0.11999999989E+02  0.12000000000E+02  0.51109989000E-03 0.  1.
     -623   -1    0    0    0    0  0.00000000000E+00  0.00000000000E+00  0.42561509872E-11  0.25126700000E+02  0.25126700000E+02 0.  1.
      622    2    1    2    0    0  0.68938114729E-02 -0.26768134944E-01  0.10717535636E+02  0.10718062698E+02  0.10263453931E+00 0.  0.
       11    1    1    2    0    0  0.11420731311E-01  0.60720025558E-01  0.12804177024E+01  0.12819076053E+01  0.51109989000E-03 0.  1.
     -623    1    1    2    0    0 -0.18314542784E-01 -0.33951890614E-01  0.20466511081E-02  0.25126729696E+02  0.25126700000E+02 0.  1.
     -611    1    3    3    0    0  0.48529059971E-01  0.91690613476E-02  0.50920770621E+01  0.50923263787E+01  0.10000000000E-01 0.  1.
      611    1    3    3    0    0 -0.41635248498E-01 -0.35937196292E-01  0.56254585736E+01  0.56257363197E+01  0.10000000000E-01 0. -1.
</event>
<event>
 7   0  0.6206631E-02  0.9118800E+02  0.7818608E-02  0.1180000E+00
       11   -1    0    0    0    0  0.00000000000E+00  0.00000000000E+00  0.11999999989E+02  0.12000000000E+02  0.51109989000E-03 0.  1.
     -623   -1    0    0    0    0  0.00000000000E+00  0.00000000000E+00  0.42561509872E-11  0.25126700000E+02  0.25126700000E+02 0.  1.
      622    2    1    2    0    0  0.16938175498E-01 -0.48700789831E-01  0.10876392198E+02  0.10877144212E+02  0.11704817879E+00 0.  0.
       11    1    1    2    0    0  0.11024229931E-01  0.22791705037E-01  0.11225412580E+01  0.11228268489E+01  0.51109989000E-03 0.  1.
     -623    1    1    2    0    0 -0.27962405429E-01  0.25909084794E-01  0.10665327422E-02  0.25126728940E+02  0.25126700000E+02 0.  1.
     -611    1    3    3    0    0  0.53358099912E-02 -0.55891457326E-01  0.22106159767E+01  0.22113514697E+01  0.10000000000E-01 0. -1.
      611    1    3    3    0    0  0.11602365507E-01  0.71906674950E-02  0.86657762216E+01  0.86657927418E+01  0.10000000000E-01 0.  1.
</event>
<event>
 7   0  0.6206631E-02  0.9118800E+02  0.7818608E-02  0.1180000E+00
       11   -1    0    0    0    0  0.00000000000E+00  0.00000000000E+00  0.11999999989E+02  0.12000000000E+02  0.51109989000E-03 0.  1.
     -623   -1    0    0    0    0  0.00000000000E+00  0.00000000000E+00  0.42561509872E-11  0.25126700000E+02  0.25126700000E+02 0.  1.
      622    2    1    2    0    0 -0.14030721824E+00 -0.64866731691E-01  0.11865450536E+02  0.11867553932E+02  0.16132611293E+00 0.  0.
       11    1    1    2    0    0  0.27544904569E-01 -0.68134294955E-01  0.10944171770E+00  0.13182850493E+00  0.51109989000E-03 0.  1.
     -623    1    1    2    0    0  0.11276231367E+00  0.13300102665E+00  0.25107735827E-01  0.25127317563E+02  0.25126700000E+02 0.  1.
     -611    1    3    3    0    0 -0.64768756349E-01  0.49235455667E-01  0.33776205842E+01  0.33786150909E+01  0.10000000000E-01 0. -1.
      611    1    3    3    0    0 -0.75538461893E-01 -0.11410218736E+00  0.84878299514E+01  0.84889388414E+01  0.10000000000E-01 0.  1.
</event>
<event>
 7   0  0.6206631E-02  0.9118800E+02  0.7818608E-02  0.1180000E+00
       11   -1    0    0    0    0  0.00000000000E+00  0.00000000000E+00  0.11999999989E+02  0.12000000000E+02  0.51109989000E-03 0. -1.
     -623   -1    0    0    0    0  0.00000000000E+00  0.00000000000E+00  0.42561509872E-11  0.25126700000E+02  0.25126700000E+02 0. -1.
      622    2    1    2    0    0 -0.27299927519E-02  0.30918379591E-03  0.11398653931E+02  0.11398706899E+02  0.34640928715E-01 0.  0.
       11    1    1    2    0    0  0.26524434170E-02 -0.70132429116E-03  0.60128662100E+00  0.60129309752E+00  0.51109989000E-03 0. -1.
     -623    1    1    2    0    0  0.77549334932E-04  0.39214049524E-03  0.59437409826E-04  0.25126700003E+02  0.25126700000E+02 0. -1.
     -611    1    3    3    0    0 -0.35467596799E-02 -0.13728860998E-01  0.62326867160E+01  0.62327108677E+01  0.10000000000E-01 0. -1.
      611    1    3    3    0    0  0.81676692808E-03  0.14038044794E-01  0.51659672147E+01  0.51659960314E+01  0.10000000000E-01 0. -1.
</event>
<event>
 7   0  0.6206631E-02  0.9118800E+02  0.7818608E-02  0.1180000E+00
       11   -1    0    0    0    0  0.00000000000E+00  0.00000000000E+00  0.11999999989E+02  0.12000000000E+02  0.51109989000E-03 0. -1.
     -623   -1    0    0    0    0  0.00000000000E+00  0.00000000000E+00  0.42561509872E-11  0.25126700000E+02  0.25126700000E+02 0. -1.
      622    2    1    2    0    0 -0.13935281157E-01 -0.12844144450E-01  0.59051882610E+01  0.59058574837E+01  0.86862284656E-01 0.  0.
       11    1    1    2    0    0  0.16989188493E-01  0.19492311092E-01  0.60940865645E+01  0.60941414407E+01  0.51109989000E-03 0. -1.
     -623    1    1    2    0    0 -0.30539073363E-02 -0.66481666415E-02  0.72516365810E-03  0.25126701076E+02  0.25126700000E+02 0. -1.
     -611    1    3    3    0    0 -0.21562651983E-02 -0.46104863936E-01  0.23133924005E+01  0.23138743930E+01  0.10000000000E-01 0.  1.
      611    1    3    3    0    0 -0.11779015958E-01  0.33260719486E-01  0.35917958605E+01  0.35919830907E+01  0.10000000000E-01 0. -1.
</event>
<event>
 7   0  0.6206631E-02  0.9118800E+02  0.7818608E-02  0.1180000E+00
       11   -1    0    0    0    0  0.00000000000E+00  0.00000000000E+00  0.11999999989E+02  0.12000000000E+02  0.51109989000E-03 0.  1.
     -623   -1    0    0    0    0  0.00000000000E+00  0.00000000000E+00  0.42561509872E-11  0.25126700000E+02  0.25126700000E+02 0. -1.
      622    2    1    2    0    0  0.69926741900E-03 -0.15493023597E-02  0.11949489520E+02  0.11949767816E+02  0.81536394087E-01 0.  0.
       11    1    1    2    0    0  0.99528647378E-03  0.15804995327E-02  0.50194786193E-01  0.50232124761E-01  0.51109989000E-03 0.  1.
     -623    1    1    2    0    0 -0.16945538928E-02 -0.31197172960E-04  0.31568304672E-03  0.25126700059E+02  0.25126700000E+02 0. -1.
     -611    1    3    3    0    0  0.21367539155E-01 -0.32352476275E-01  0.77189965488E+01  0.77191003994E+01  0.10000000000E-01 0.  1.
      611    1    3    3    0    0 -0.20668271736E-01  0.30803173915E-01  0.42304929710E+01  0.42306674167E+01  0.10000000000E-01 0. -1.
</event>
<event>
 7   0  0.6206631E-02  0.9118800E+02  0.7818608E-02  0.1180000E+00
       11   -1    0    0    0    0  0.00000000000E+00  0.00000000000E+00  0.11999999989E+02  0.12000000000E+02  0.51109989000E-03 0. -1.
     -623   -1    0    0    0    0  0.00000000000E+00  0.00000000000E+00  0.42561509872E-11  0.25126700000E+02  0.25126700000E+02 0.  1.
      622    2    1    2    0    0 -0.81655240666E-01 -0.79740707578E-01  0.80700599575E+01  0.80717795961E+01  0.12137532963E+00 0.  0.
       11    1    1    2    0    0  0.94942155670E-01  0.68711412294E-01  0.39264655232E+01  0.39282142300E+01  0.51109989000E-03 0. -1.
     -623    1    1    2    0    0 -0.13286915004E-01  0.11029295284E-01  0.34745084188E-02  0.25126706174E+02  0.25126700000E+02 0.  1.
     -611    1    3    3    0    0 -0.26552962731E-01 -0.82142789237E-01  0.26393486833E+01  0.26407790460E+01  0.10000000000E-01 0.  1.
      611    1    3    3    0    0 -0.55102277935E-01  0.24020816598E-02  0.54307112742E+01  0.54310005501E+01  0.10000000000E-01 0. -1.
</event>
<event>
 7   0  0.6206631E-02  0.9118800E+02  0.7818608E-02  0.1180000E+00
       11   -1    0    0    0    0  0.00000000000E+00  0.00000000000E+00  0.11999999989E+02  0.12000000000E+02  0.51109989000E-03 0. -1.
     -623   -1    0    0    0    0  0.00000000000E+00  0.00000000000E+00  0.42561509872E-11  0.25126700000E+02  0.25126700000E+02 0.  1.
      622    2    1    2    0    0  0.13158083426E-02  0.15134459988E-01  0.11831667233E+02  0.11832293704E+02  0.12080567065E+00 0.  0.
       11    1    1    2    0    0 -0.48828866864E-03 -0.14990966506E-01  0.16703340102E+00  0.16770624849E+00  0.51109989000E-03 0. -1.
     -623    1    1    2    0    0 -0.82751967400E-03 -0.14349348144E-03  0.12993555599E-02  0.25126700048E+02  0.25126700000E+02 0.  1.
     -611    1    3    3    0    0  0.44380499211E-01 -0.31076276003E-01  0.42570450230E+01  0.42574015187E+01  0.10000000000E-01 0.  1.
      611    1    3    3    0    0 -0.43064690868E-01  0.46210735991E-01  0.75746222096E+01  0.75748921852E+01  0.10000000000E-01 0. -1.
</event>
<event>
 7   0  0.6206631E-02  0.9118800E+02  0.7818608E-02  0.1180000E+00
       11   -1    0    0    0    0  0.00000000000E+00  0.00000000000E+00  0.11999999989E+02  0.12000000000E+02  0.51109989000E-03 0.  1.
     -623   -1    0    0    0    0  0.00000000000E+00  0.00000000000E+00  0.42561509872E-11  0.25126700000E+02  0.25126700000E+02 0. -1.
      622    2    1    2    0    0  0.11849394627E-02 -0.72555014167E-03  0.11996304103E+02  0.11996718500E+02  0.99703061534E-01 0.  0.
       11    1    1    2    0    0 -0.15765623241E-02 -0.47356505192E-03  0.27922920705E-02  0.32814525365E-02  0.51109989000E-03 0.  1.
     -623    1    1    2    0    0  0.39162286140E-03  0.11991151936E-02  0.90359426416E-03  0.25126700048E+02  0.25126700000E+02 0. -1.
     -611    1    3    3    0    0  0.17359585130E-01 -0.46131293667E-01  0.64342854915E+01  0.64344820489E+01  0.10000000000E-01 0. -1.
      611    1    3    3    0    0 -0.16174645667E-01  0.45405743525E-01  0.55620186112E+01  0.55622364506E+01  0.10000000000E-01 0.  1.
</event>
<event>
 7   0  0.6206631E-02  0.9118800E+02  0.7818608E-02  0.1180000E+00
       11   -1    0    0    0    0  0.00000000000E+00  0.00000000000E+00  0.11999999989E+02  0.12000000000E+02  0.51109989000E-03 0. -1.
     -623   -1    0    0    0    0  0.00000000000E+00  0.00000000000E+00  0.42561509872E-11  0.25126700000E+02  0.25126700000E+02 0. -1.
      622    2    1    2    0    0 -0.28839451246E-01  0.12566561048E-02  0.11267073266E+02  0.11267995774E+02  0.14126388252E+00 0.  0.
       11    1    1    2    0    0  0.30870676787E-01 -0.39840465771E-03  0.73135255174E+00  0.73200408030E+00  0.51109989000E-03 0. -1.
     -623    1    1    2    0    0 -0.20312255417E-02 -0.85825144711E-03  0.15741715763E-02  0.25126700146E+02  0.25126700000E+02 0. -1.
     -611    1    3    3    0    0 -0.12314424407E-01  0.81965132544E-02  0.11035583913E+02  0.11035598358E+02  0.10000000000E-01 0. -1.
      611    1    3    3    0    0 -0.16525026838E-01 -0.69398571496E-02  0.23148935322E+00  0.23239741561E+00  0.10000000000E-01 0.  1.
</event>
<event>
 7   0  0.6206631E-02  0.9118800E+02  0.7818608E-02  0.1180000E+00
       11   -1    0    0    0    0  0.00000000000E+00  0.00000000000E+00  0.11999999989E+02  0.12000000000E+02  0.51109989000E-03 0.  1.
     -623   -1    0    0    0    0  0.00000000000E+00  0.00000000000E+00  0.42561509872E-11  0.25126700000E+02  0.25126700000E+02 0.  1.
      622    2    1    2    0    0  0.24306964031E-01  0.26301516398E-01  0.11566537428E+02  0.11567134753E+02  0.11196309341E+00 0.  0.
       11    1    1    2    0    0  0.20615520454E-01 -0.31601022214E-01  0.43117641302E+00  0.43282442706E+00  0.51109989000E-03 0.  1.
     -623    1    1    2    0    0 -0.44922484485E-01  0.52995058163E-02  0.22861485753E-02  0.25126740820E+02  0.25126700000E+02 0.  1.
     -611    1    3    3    0    0 -0.78684594163E-02  0.56409072864E-01  0.90982848525E+01  0.90984686159E+01  0.10000000000E-01 0.  1.
      611    1    3    3    0    0  0.32175423448E-01 -0.30107556466E-01  0.24682525750E+01  0.24686661372E+01  0.10000000000E-01 0. -1.
</event>
<event>
 7   0  0.6206631E-02  0.9118800E+02  0.7818608E-02  0.1180000E+00
       11   -1    0    0    0    0  0.00000000000E+00  0.00000000000E+00  0.11999999989E+02  0.12000000000E+02  0.51109989000E-03 0.  1.
     -623   -1    0    0    0    0  0.00000000000E+00  0.00000000000E+00  0.42561509872E-11  0.25126700000E+02  0.25126700000E+02 0. -1.
      622    2    1    2    0    0  0.32579202333E-01  0.20335867148E-01  0.11299984613E+02  0.11300536741E+02  0.10489718499E+00 0.  0.
       11    1    1    2    0    0 -0.78135778805E-02  0.46365356573E-02  0.69937943616E+00  0.69943863663E+00  0.51109989000E-03 0.  1.
     -623    1    1    2    0    0 -0.24765624452E-01 -0.24972402805E-01  0.63593960712E-03  0.25126724622E+02  0.25126700000E+02 0. -1.
     -611    1    3    3    0    0 -0.30672130367E-01  0.31584779490E-01  0.55792037383E+01  0.55793864117E+01  0.10000000000E-01 0. -1.
      611    1    3    3    0    0  0.63251332699E-01 -0.11248912342E-01  0.57207808750E+01  0.57211503292E+01  0.10000000000E-01 0.  1.
</event>
<event>
 7   0  0.6206631E-02  0.9118800E+02  0.7818608E-02  0.1180000E+00
       11   -1    0    0    0    0  0.00000000000E+00  0.00000000000E+00  0.11999999989E+02  0.12000000000E+02  0.51109989000E-03 0. -1.
     -623   -1    0    0    0    0  0.00000000000E+00  0.00000000000E+00  0.42561509872E-11  0.25126700000E+02  0.25126700000E+02 0.  1.
      622    2    1    2    0    0 -0.22628197962E-01 -0.15018611075E-01  0.10468175778E+02  0.10468653188E+02  0.96217709898E-01 0.  0.
       11    1    1    2    0    0  0.24199453075E-01  0.14711961800E-01  0.15310847636E+01  0.15313467504E+01  0.51109989000E-03 0. -1.
     -623    1    1    2    0    0 -0.15712551135E-02  0.30664927524E-03  0.73944731191E-03  0.25126700062E+02  0.25126700000E+02 0.  1.
     -611    1    3    3    0    0  0.39700781468E-02  0.14184127338E-01  0.40105718314E+00  0.40145213306E+00  0.10000000000E-01 0.  1.
      611    1    3    3    0    0 -0.26598276109E-01 -0.29202738413E-01  0.10067118595E+02  0.10067201055E+02  0.10000000000E-01 0. -1.
</event>
<event>
 7   0  0.6206631E-02  0.9118800E+02  0.7818608E-02  0.1180000E+00
       11   -1    0    0    0    0  0.00000000000E+00  0.00000000000E+00  0.11999999989E+02  0.12000000000E+02  0.51109989000E-03 0.  1.
     -623   -1    0    0    0    0  0.00000000000E+00  0.00000000000E+00  0.42561509872E-11  0.25126700000E+02  0.25126700000E+02 0. -1.
      622    2    1    2    0    0  0.37987851646E-02 -0.18616454920E-02  0.11955403397E+02  0.11955566834E+02  0.62370063805E-01 0.  0.
       11    1    1    2    0    0 -0.32041984821E-02 -0.88851684248E-03  0.44305468583E-01  0.44433007096E-01  0.51109989000E-03 0.  1.
     -623    1    1    2    0    0 -0.59458668256E-03  0.27501623344E-02  0.29112319502E-03  0.25126700159E+02  0.25126700000E+02 0. -1.
     -611    1    3    3    0    0 -0.38819183379E-02 -0.29838955730E-01  0.57091666318E+01  0.57092546853E+01  0.10000000000E-01 0.  1.
      611    1    3    3    0    0  0.76807035025E-02  0.27977310238E-01  0.62462367656E+01  0.62463121483E+01  0.10000000000E-01 0. -1.
</event>
<event>
 7   0  0.6206631E-02  0.9118800E+02  0.7818608E-02  0.1180000E+00
       11   -1    0    0    0    0  0.00000000000E+00  0.00000000000E+00  0.11999999989E+02  0.12000000000E+02  0.51109989000E-03 0.  1.
     -623   -1    0    0    0    0  0.00000000000E+00  0.00000000000E+00  0.42561509872E-11  0.25126700000E+02  0.25126700000E+02 0.  1.
      622    2    1    2    0    0 -0.15406218315E-01 -0.32384026212E-01  0.82897682290E+01  0.82907513076E+01  0.12253112690E+00 0.  0.
       11    1    1    2    0    0  0.16236679931E-01  0.30930899347E-01  0.37090840706E+01  0.37092486104E+01  0.51109989000E-03 0.  1.
     -623    1    1    2    0    0 -0.83046161589E-03  0.14531268645E-02  0.11476895389E-02  0.25126700082E+02  0.25126700000E+02 0.  1.
     -611    1    3    3    0    0  0.48259872487E-01  0.11386950817E-02  0.46281259335E+01  0.46283884850E+01  0.10000000000E-01 0. -1.
      611    1    3    3    0    0 -0.63666090801E-01 -0.33522721293E-01  0.36616422955E+01  0.36623628226E+01  0.10000000000E-01 0.  1.
</event>
<event>
 7   0  0.6206631E-02  0.9118800E+02  0.7818608E-02  0.1180000E+00
       11   -1    0    0    0    0  0.00000000000E+00  0.00000000000E+00  0.11999999989E+02  0.12000000000E+02  0.51109989000E-03 0. -1.
     -623   -1    0    0    0    0  0.00000000000E+00  0.00000000000E+00  0.42561509872E-11  0.25126700000E+02  0.25126700000E+02 0. -1.
      622    2    1    2    0    0 -0.68771641404E-03 -0.15119623017E-02  0.11997642697E+02  0.11998099010E+02  0.10462702026E+00 0.  0.
       11    1    1    2    0    0  0.31346869540E-03  0.88572067823E-04  0.18017335661E-02  0.19009404620E-02  0.51109989000E-03 0. -1.
     -623    1    1    2    0    0  0.37424771864E-03  0.14233902339E-02  0.55555840580E-03  0.25126700049E+02  0.25126700000E+02 0. -1.
     -611    1    3    3    0    0 -0.64715222836E-02 -0.15545042407E-01  0.11622271801E+02  0.11622288301E+02  0.10000000000E-01 0. -1.
      611    1    3    3    0    0  0.57838058696E-02  0.14033080105E-01  0.37537089610E+00  0.37581070952E+00  0.10000000000E-01 0. -1.
</event>
<event>
 7   0  0.6206631E-02  0.9118800E+02  0.7818608E-02  0.1180000E+00
       11   -1    0    0    0    0  0.00000000000E+00  0.00000000000E+00  0.11999999989E+02  0.12000000000E+02  0.51109989000E-03 0.  1.
     -623   -1    0    0    0    0  0.00000000000E+00  0.00000000000E+00  0.42561509872E-11  0.25126700000E+02  0.25126700000E+02 0.  1.
      622    2    1    2    0    0  0.24059298924E-01  0.20859226570E-01  0.97175118927E+01  0.97180981590E+01  0.10188467230E+00 0.  0.
       11    1    1    2    0    0 -0.19878977171E-01 -0.47055273039E-02  0.22818047918E+01  0.22818962914E+01  0.51109989000E-03 0.  1.
     -623    1    1    2    0    0 -0.41803217534E-02 -0.16153699266E-01  0.68330462377E-03  0.25126705550E+02  0.25126700000E+02 0.  1.
     -611    1    3    3    0    0  0.56111841483E-01  0.28434469350E-01  0.79240993612E+01  0.79243553519E+01  0.10000000000E-01 0.  1.
      611    1    3    3    0    0 -0.32052542558E-01 -0.75752427798E-02  0.17934125315E+01  0.17937428071E+01  0.10000000000E-01 0. -1.
</event>
<event>
 7   0  0.6206631E-02  0.9118800E+02  0.7818608E-02  0.1180000E+00
       11   -1    0    0    0    0  0.00000000000E+00  0.00000000000E+00  0.11999999989E+02  0.12000000000E+02  0.51109989000E-03 0.  1.
     -623   -1    0    0    0    0  0.00000000000E+00  0.00000000000E+00  0.42561509872E-11  0.25126700000E+02  0.25126700000E+02 0.  1.
      622    2    1    2    0    0  0.23819993070E-02 -0.27060242473E-02  0.11873835455E+02  0.11874068091E+02  0.74240360878E-01 0.  0.
       11    1    1    2    0    0 -0.27992871012E-02  0.24271503502E-02  0.12587635085E+00  0.12593190221E+00  0.51109989000E-03 0.  1.
     -623    1    1    2    0    0  0.41728779427E-03  0.27887389706E-03  0.28818357966E-03  0.25126700007E+02  0.25126700000E+02 0.  1.
     -611    1    3    3    0    0  0.12277292946E-01 -0.63056103209E-02  0.65051113718E+00  0.65073437917E+00  0.10000000000E-01 0.  1.
      611    1    3    3    0    0 -0.98952936386E-02  0.35995860737E-02  0.11223324318E+02  0.11223333712E+02  0.10000000000E-01 0.  1.
</event>
<event>
 7   0  0.6206631E-02  0.9118800E+02  0.7818608E-02  0.1180000E+00
       11   -1    0    0    0    0  0.00000000000E+00  0.00000000000E+00  0.11999999989E+02  0.12000000000E+02  0.51109989000E-03 0. -1.
     -623   -1    0    0    0    0  0.00000000000E+00  0.00000000000E+00  0.42561509872E-11  0.25126700000E+02  0.25126700000E+02 0.  1.
      622    2    1    2    0    0 -0.44773714477E-02 -0.27846598218E-02  0.10632506815E+02  0.10632766661E+02  0.74147840862E-01 0.  0.
       11    1    1    2    0    0  0.56501865578E-02  0.18571982825E-02  0.13672202609E+01  0.13672332928E+01  0.51109989000E-03 0. -1.
     -623    1    1    2    0    0 -0.11728151101E-02  0.92746153933E-03  0.27291329091E-03  0.25126700046E+02  0.25126700000E+02 0.  1.
     -611    1    3    3    0    0  0.27758633834E-01  0.12025362704E-01  0.29633807647E+01  0.29635520424E+01  0.10000000000E-01 0.  1.
      611    1    3    3    0    0 -0.32236005281E-01 -0.14810022525E-01  0.76691260502E+01  0.76692146189E+01  0.10000000000E-01 0. -1.
</event>
<event>
 7   0  0.6206631E-02  0.9118800E+02  0.7818608E-02  0.1180000E+00
       11   -1    0    0    0    0  0.00000000000E+00  0.00000000000E+00  0.11999999989E+02  0.12000000000E+02  0.51109989000E-03 0. -1.
     -623   -1    0    0    0    0  0.00000000000E+00  0.00000000000E+00  0.42561509872E-11  0.25126700000E+02  0.25126700000E+02 0. -1.
      622    2    1    2    0    0 -0.12675929809E+00  0.14924675198E+00  0.44402848631E+01  0.44469958785E+01  0.14594575876E+00 0.  0.
       11    1    1    2    0    0  0.19006468502E+00  0.45530528115E-01  0.75496380716E+01  0.75521674297E+01  0.51109989000E-03 0. -1.
     -623    1    1    2    0    0 -0.63305386932E-01 -0.19477728009E+00  0.10077054375E-01  0.25127536692E+02  0.25126700000E+02 0. -1.
     -611    1    3    3    0    0  0.67574830927E-02  0.41688317690E-01  0.29711987742E+00  0.30027287751E+00  0.10000000000E-01 0. -1.
      611    1    3    3    0    0 -0.13351678118E+00  0.10755843429E+00  0.41431649857E+01  0.41467230009E+01  0.10000000000E-01 0. -1.
</event>
<event>
 7   0  0.6206631E-02  0.9118800E+02  0.7818608E-02  0.1180000E+00
       11   -1    0    0    0    0  0.00000000000E+00  0.00000000000E+00  0.11999999989E+02  0.12000000000E+02  0.51109989000E-03 0. -1.
     -623   -1    0    0    0    0  0.00000000000E+00  0.00000000000E+00  0.42561509872E-11  0.25126700000E+02  0.25126700000E+02 0. -1.
      622    2    1    2    0    0  0.38151939955E-01 -0.80067159605E-01  0.86202155601E+01  0.86209204395E+01  0.65472135739E-01 0.  0.
       11    1    1    2    0    0 -0.40545844093E-01  0.67057726619E-01  0.33781672291E+01  0.33790760266E+01  0.51109989000E-03 0. -1.
     -623    1    1    2    0    0  0.23939041385E-02  0.13009432987E-01  0.16171998551E-02  0.25126703534E+02  0.25126700000E+02 0. -1.
     -611    1    3    3    0    0  0.10932646877E-01  0.68653929775E-02  0.20616116136E+01  0.20616762845E+01  0.10000000000E-01 0.  1.
      611    1    3    3    0    0  0.27219293078E-01 -0.86932552583E-01  0.65586039465E+01  0.65592441550E+01  0.10000000000E-01 0. -1.
</event>
<event>
 7   0  0.6206631E-02  0.9118800E+02  0.7818608E-02  0.1180000E+00
       11   -1    0    0    0    0  0.00000000000E+00  0.00000000000E+00  0.11999999989E+02  0.12000000000E+02  0.51109989000E-03 0.  1.
     -623   -1    0    0    0    0  0.00000000000E+00  0.00000000000E+00  0.42561509872E-11  0.25126700000E+02  0.25126700000E+02 0.  1.
      622    2    1    2    0    0 -0.24399554795E-03  0.19906913880E-03  0.11995306156E+02  0.11995520808E+02  0.71760556715E-01 0.  0.
       11    1    1    2    0    0 -0.70964333879E-03 -0.83640694066E-03  0.43125988650E-02  0.44791631311E-02  0.51109989000E-03 0.  1.
     -623    1    1    2    0    0  0.95363888674E-03  0.63733780186E-03  0.38123436100E-03  0.25126700029E+02  0.25126700000E+02 0.  1.
     -611    1    3    3    0    0 -0.33544753818E-01  0.45449566203E-02  0.48300262997E+01  0.48301552732E+01  0.10000000000E-01 0. -1.
      611    1    3    3    0    0  0.33300758270E-01 -0.43458874815E-02  0.71652798562E+01  0.71653655346E+01  0.10000000000E-01 0.  1.
</event>
<event>
 7   0  0.6206631E-02  0.9118800E+02  0.7818608E-02  0.1180000E+00
       11   -1    0    0    0    0  0.00000000000E+00  0.00000000000E+00  0.11999999989E+02  0.12000000000E+02  0.51109989000E-03 0.  1.
     -623   -1    0    0    0    0  0.00000000000E+00  0.00000000000E+00  0.42561509872E-11  0.25126700000E+02  0.25126700000E+02 0.  1.
      622    2    1    2    0    0  0.16704523329E-01  0.18733772440E-01  0.11456926004E+02  0.11457262511E+02  0.84147413005E-01 0.  0.
       11    1    1    2    0    0  0.10663992888E-01 -0.58292832951E-03  0.54261068935E+00  0.54271602332E+00  0.51109989000E-03 0.  1.
     -623    1    1    2    0    0 -0.27368516217E-01 -0.18150844110E-01  0.46329526108E-03  0.25126721465E+02  0.25126700000E+02 0.  1.
     -611    1    3    3    0    0  0.24965909101E-01 -0.21114198133E-01  0.81397981953E+01  0.81398700092E+01  0.10000000000E-01 0.  1.
      611    1    3    3    0    0 -0.82613857727E-02  0.39847970573E-01  0.33171278091E+01  0.33173925022E+01  0.10000000000E-01 0. -1.
</event>
<event>
 7   0  0.6206631E-02  0.9118800E+02  0.7818608E-02  0.1180000E+00
       11   -1    0    0    0    0  0.00000000000E+00  0.00000000000E+00  0.11999999989E+02  0.12000000000E+02  0.51109989000E-03 0. -1.
     -623   -1    0    0    0    0  0.00000000000E+00  0.00000000000E+00  0.42561509872E-11  0.25126700000E+02  0.25126700000E+02 0. -1.
      622    2    1    2    0    0 -0.12882470298E-01 -0.52199681566E-03  0.11961800917E+02  0.11962151497E+02  0.90669807709E-01 0.  0.
       11    1    1    2    0    0  0.99201634049E-02 -0.37806505645E-02  0.36324903700E-01  0.37847890465E-01  0.51109989000E-03 0. -1.
     -623    1    1    2    0    0  0.29623068926E-02  0.43026473802E-02  0.18741681756E-02  0.25126700613E+02  0.25126700000E+02 0. -1.
     -611    1    3    3    0    0 -0.33132545961E-01 -0.13930720711E-01  0.22075737770E+01  0.22078889944E+01  0.10000000000E-01 0.  1.
      611    1    3    3    0    0  0.20250075663E-01  0.13408723895E-01  0.97542271403E+01  0.97542625023E+01  0.10000000000E-01 0. -1.
</event>
<event>
 7   0  0.6206631E-02  0.9118800E+02  0.7818608E-02  0.1180000E+00
       11   -1    0    0    0    0  0.00000000000E+00  0.00000000000E+00  0.11999999989E+02  0.12000000000E+02  0.51109989000E-03 0.  1.
     -623   -1    0    0    0    0  0.00000000000E+00  0.00000000000E+00  0.42561509872E-11  0.25126700000E+02  0.25126700000E+02 0. -1.
      622    2    1    2    0    0  0.49614407388E-01 -0.38476166580E-01  0.80589849191E+01  0.80594828927E+01  0.63910610773E-01 0.  0.
       11    1    1    2    0    0 -0.45733119679E-01  0.37313104580E-01  0.39400746582E+01  0.39405167630E+01  0.51109989000E-03 0.  1.
     -623    1    1    2    0    0 -0.38812877093E-02  0.11630620001E-02  0.94041176845E-03  0.25126700344E+02  0.25126700000E+02 0. -1.
     -611    1    3    3    0    0  0.45876390835E-01 -0.51901593545E-01  0.55850675831E+01  0.55855060941E+01  0.10000000000E-01 0.  1.
      611    1    3    3    0    0  0.37380165532E-02  0.13425426965E-01  0.24739173360E+01  0.24739767986E+01  0.10000000000E-01 0. -1.
</event>
<event>
 7   0  0.6206631E-02  0.9118800E+02  0.7818608E-02  0.1180000E+00
       11   -1    0    0    0    0  0.00000000000E+00  0.00000000000E+00  0.11999999989E+02  0.12000000000E+02  0.51109989000E-03 0. -1.
     -623   -1    0    0    0    0  0.00000000000E+00  0.00000000000E+00  0.42561509872E-11  0.25126700000E+02  0.25126700000E+02 0. -1.
      622    2    1    2    0    0 -0.24651531261E-02  0.40046057664E-02  0.11914566750E+02  0.11915048643E+02  0.10705704382E+00 0.  0.
       11    1    1    2    0    0  0.42537551126E-02 -0.11449826310E-02  0.84835292062E-01  0.84951123714E-01  0.51109989000E-03 0. -1.
     -623    1    1    2    0    0 -0.17886019865E-02 -0.28596231354E-02  0.59794725395E-03  0.25126700233E+02  0.25126700000E+02 0. -1.
     -611    1    3    3    0    0 -0.68393871814E-02  0.22285319327E-01  0.69657373858E+00  0.69703542661E+00  0.10000000000E-01 0.  1.
      611    1    3    3    0    0  0.43742340552E-02 -0.18280713561E-01  0.11217993011E+02  0.11218013216E+02  0.10000000000E-01 0. -1.
</event>
<event>
 6   0  0.6206631E-02  0.9118800E+02  0.7818608E-02  0.1180000E+00
       11   -1    0    0    0    0  0.00000000000E+00  0.00000000000E+00  0.11999999989E+02  0.12000000000E+02  0.51109989000E-03 0. -1.
     -623   -1    0    0    0    0  0.00000000000E+00  0.00000000000E+00  0.42561509872E-11  0.25126700000E+02  0.25126700000E+02 0. -1.
       11    1    1    2    0    0 -0.75999813550E-01 -0.68303054114E-01  0.18946309191E+01  0.18973844787E+01  0.51109989000E-03 0. -1.
     -623    1    1    2    0    0  0.34208323245E-01 -0.13040679468E-01  0.80727821112E-02  0.25126727967E+02  0.25126700000E+02 0. -1.
     -611    1    1    2    0    0  0.57994047167E-01  0.15535900010E+00  0.93332617826E+01  0.93347402337E+01  0.10000000000E-01 0. -1.
      611    1    1    2    0    0 -0.16202556862E-01 -0.74015266517E-01  0.76403450526E+00  0.76784732060E+00  0.10000000000E-01 0.  1.
</event>
<event>
 7   0  0.6206631E-02  0.9118800E+02  0.7818608E-02  0.1180000E+00
       11   -1    0    0    0    0  0.00000000000E+00  0.00000000000E+00  0.11999999989E+02  0.12000000000E+02  0.51109989000E-03 0.  1.
     -623   -1    0    0    0    0  0.00000000000E+00  0.00000000000E+00  0.42561509872E-11  0.25126700000E+02  0.25126700000E+02 0.  1.
      622    2    1    2    0    0  0.34966977145E-01 -0.11228189669E-01  0.10047152696E+02  0.10047970872E+02  0.12285186304E+00 0.  0.
       11    1    1    2    0    0 -0.33640832190E-01  0.10726221234E-01  0.19517096199E+01  0.19520290621E+01  0.51109989000E-03 0.  1.
     -623    1    1    2    0    0 -0.13261449550E-02  0.50196843511E-03  0.11376727342E-02  0.25126700066E+02  0.25126700000E+02 0.  1.
     -611    1    3    3    0    0 -0.22163172908E-01  0.41043691863E-01  0.48040091803E+01  0.48042460382E+01  0.10000000000E-01 0.  1.
      611    1    3    3    0    0  0.57130150053E-01 -0.52271881531E-01  0.52431435162E+01  0.52437248340E+01  0.10000000000E-01 0. -1.
</event>
<event>
 7   0  0.6206631E-02  0.9118800E+02  0.7818608E-02  0.1180000E+00
       11   -1    0    0    0    0  0.00000000000E+00  0.00000000000E+00  0.11999999989E+02  0.12000000000E+02  0.51109989000E-03 0. -1.
     -623   -1    0    0    0    0  0.00000000000E+00  0.00000000000E+00  0.42561509872E-11  0.25126700000E+02  0.25126700000E+02 0.  1.
      622    2    1    2    0    0 -0.15239520620E-01  0.57948001013E-02  0.11994420676E+02  0.11995803362E+02  0.18139766521E+00 0.  0.
       11    1    1    2    0    0  0.38589372908E-02  0.45602586354E-04  0.15579004841E-02  0.41930601816E-02  0.51109989000E-03 0. -1.
     -623    1    1    2    0    0  0.11380583329E-01 -0.58404026876E-02  0.40214122094E-02  0.25126703578E+02  0.25126700000E+02 0.  1.
     -611    1    3    3    0    0 -0.74066741746E-02 -0.87272687151E-01  0.56766642083E+01  0.56773486694E+01  0.10000000000E-01 0.  1.
      611    1    3    3    0    0 -0.78328464456E-02  0.93067487252E-01  0.63177564682E+01  0.63184546925E+01  0.10000000000E-01 0. -1.
</event>
<event>
 7   0  0.6206631E-02  0.9118800E+02  0.7818608E-02  0.1180000E+00
       11   -1    0    0    0    0  0.00000000000E+00  0.00000000000E+00  0.11999999989E+02  0.12000000000E+02  0.51109989000E-03 0.  1.
     -623   -1    0    0    0    0  0.00000000000E+00  0.00000000000E+00  0.42561509872E-11  0.25126700000E+02  0.25126700000E+02 0. -1.
      622    2    1    2    0    0  0.66878825556E-03 -0.21062658205E-02  0.11865342670E+02  0.11865422560E+02  0.43485231240E-01 0.  0.
       11    1    1    2    0    0 -0.16274490414E-03  0.17425164889E-02  0.13456508129E+00  0.13457743189E+00  0.51109989000E-03 0.  1.
     -623    1    1    2    0    0 -0.50604335142E-03  0.36374933156E-03  0.92237543820E-04  0.25126700008E+02  0.25126700000E+02 0. -1.
     -611    1    3    3    0    0 -0.12770243907E-01  0.58838489376E-02  0.24136791859E+01  0.24137408542E+01  0.10000000000E-01 0. -1.
      611    1    3    3    0    0  0.13439032162E-01 -0.79901147581E-02  0.94516634843E+01  0.94516817060E+01  0.10000000000E-01 0.  1.
</event>
<event>
 7   0  0.6206631E-02  0.9118800E+02  0.7818608E-02  0.1180000E+00
       11   -1    0    0    0    0  0.00000000000E+00  0.00000000000E+00  0.11999999989E+02  0.12000000000E+02  0.51109989000E-03 0.  1.
     -623   -1    0    0    0    0  0.00000000000E+00  0.00000000000E+00  0.42561509872E-11  0.25126700000E+02  0.25126700000E+02 0.  1.
      622    2    1    2    0    0  0.98083538592E-02 -0.13398498299E-01  0.98728840143E+01  0.98733963003E+01  0.99196873671E-01 0.  0.
       11    1    1    2    0    0 -0.37617276954E-02  0.17798059045E-01  0.21265247120E+01  0.21266025800E+01  0.51109989000E-03 0.  1.
     -623    1    1    2    0    0 -0.60466261638E-02 -0.43995607461E-02  0.59126286044E-03  0.25126701120E+02  0.25126700000E+02 0.  1.
     -611    1    3    3    0    0 -0.17698908209E-02 -0.53185993627E-01  0.41446612864E+01  0.41450149652E+01  0.10000000000E-01 0. -1.
      611    1    3    3    0    0  0.11578244680E-01  0.39787495328E-01  0.57282227278E+01  0.57283813351E+01  0.10000000000E-01 0.  1.
</event>
<event>
 7   0  0.6206631E-02  0.9118800E+02  0.7818608E-02  0.1180000E+00
       11   -1    0    0    0    0  0.00000000000E+00  0.00000000000E+00  0.11999999989E+02  0.12000000000E+02  0.51109989000E-03 0. -1.
     -623   -1    0    0    0    0  0.00000000000E+00  0.00000000000E+00  0.42561509872E-11  0.25126700000E+02  0.25126700000E+02 0.  1.
      622    2    1    2    0    0 -0.47527981245E-02 -0.75654027189E-03  0.11995018014E+02  0.11995350291E+02  0.89153101719E-01 0.  0.
       11    1    1    2    0    0  0.77870136928E-03 -0.22022329400E-02  0.39871845346E-02  0.46492009407E-02  0.51109989000E-03 0. -1.
     -623    1    1    2    0    0  0.39740967552E-02  0.29587732118E-02  0.99479025588E-03  0.25126700508E+02  0.25126700000E+02 0.  1.
     -611    1    3    3    0    0 -0.28905271013E-01 -0.81701156020E-02  0.16902799204E+01  0.16905763736E+01  0.10000000000E-01 0. -1.
      611    1    3    3    0    0  0.24152472888E-01  0.74135753301E-02  0.10304738094E+02  0.10304773917E+02  0.10000000000E-01 0. -1.
</event>
<event>
 7   0  0.6206631E-02  0.9118800E+02  0.7818608E-02  0.1180000E+00
       11   -1    0    0    0    0  0.00000000000E+00  0.00000000000E+00  0.11999999989E+02  0.12000000000E+02  0.51109989000E-03 0.  1.
     -623   -1    0    0    0    0  0.00000000000E+00  0.00000000000E+00  0.42561509872E-11  0.25126700000E+02  0.25126700000E+02 0.  1.
      622    2    1    2    0    0  0.52025960730E-01  0.22088629200E-01  0.65223931362E+01  0.65233025131E+01  0.93106635245E-01 0.  0.
       11    1    1    2    0    0 -0.19857107351E-02 -0.36370737218E-01  0.54765224212E+01  0.54766435766E+01  0.51109989000E-03 0.  1.
     -623    1    1    2    0    0 -0.50040249995E-01  0.14282108018E-01  0.10844316841E-02  0.25126753910E+02  0.25126700000E+02 0.  1.
     -611    1    3    3    0    0  0.30809877547E-01 -0.19779392735E-01  0.10289061676E+01  0.10296059317E+01  0.10000000000E-01 0. -1.
      611    1    3    3    0    0  0.21216083183E-01  0.41868021935E-01  0.54934869686E+01  0.54936965813E+01  0.10000000000E-01 0.  1.
</event>
<event>
 7   0  0.6206631E-02  0.9118800E+02  0.7818608E-02  0.1180000E+00
       11   -1    0    0    0    0  0.00000000000E+00  0.00000000000E+00  0.11999999989E+02  0.12000000000E+02  0.51109989000E-03 0. -1.
     -623   -1    0    0    0    0  0.00000000000E+00  0.00000000000E+00  0.42561509872E-11  0.25126700000E+02  0.25126700000E+02 0. -1.
      622    2    1    2    0    0  0.60928653072E-02  0.28894574735E-02  0.11880679123E+02  0.11881010259E+02  0.88446995981E-01 0.  0.
       11    1    1    2    0    0 -0.10645401714E-01 -0.13867330168E-01  0.11769447097E+00  0.11898687803E+00  0.51109989000E-03 0. -1.
     -623    1    1    2    0    0  0.45525364068E-02  0.10977872694E-01  0.16263950352E-02  0.25126702863E+02  0.25126700000E+02 0. -1.
     -611    1    3    3    0    0  0.27499359203E-01 -0.86804812638E-02  0.10677217484E+02  0.10677261108E+02  0.10000000000E-01 0. -1.
      611    1    3    3    0    0 -0.21406493896E-01  0.11569938737E-01  0.12034616394E+01  0.12037491512E+01  0.10000000000E-01 0.  1.
</event>
<event>
 7   0  0.6206631E-02  0.9118800E+02  0.7818608E-02  0.1180000E+00
       11   -1    0    0    0    0  0.00000000000E+00  0.00000000000E+00  0.11999999989E+02  0.12000000000E+02  0.51109989000E-03 0. -1.
     -623   -1    0    0    0    0  0.00000000000E+00  0.00000000000E+00  0.42561509872E-11  0.25126700000E+02  0.25126700000E+02 0. -1.
      622    2    1    2    0    0 -0.12356407758E-01 -0.14478583489E-01  0.11581780554E+02  0.11581960975E+02  0.61781371548E-01 0.  0.
       11    1    1    2    0    0  0.12809144250E-01  0.13238565561E-01  0.41763260913E+00  0.41803898290E+00  0.51109989000E-03 0. -1.
     -623    1    1    2    0    0 -0.45273649154E-03  0.12400179287E-02  0.58682639980E-03  0.25126700042E+02  0.25126700000E+02 0. -1.
     -611    1    3    3    0    0  0.21672927924E-01 -0.21210741653E-04  0.60950862222E+01  0.60951329577E+01  0.10000000000E-01 0.  1.
      611    1    3    3    0    0 -0.34029335682E-01 -0.14457372748E-01  0.54866943314E+01  0.54868280178E+01  0.10000000000E-01 0. -1.
</event>
<event>
 7   0  0.6206631E-02  0.9118800E+02  0.7818608E-02  0.1180000E+00
       11   -1    0    0    0    0  0.00000000000E+00  0.00000000000E+00  0.11999999989E+02  0.12000000000E+02  0.51109989000E-03 0. -1.
     -623   -1    0    0    0    0  0.00000000000E+00  0.00000000000E+00  0.42561509872E-11  0.25126700000E+02  0.25126700000E+02 0.  1.
      622    2    1    2    0    0  0.47661939705E-02 -0.34383750915E-02  0.11991398361E+02  0.11991848860E+02  0.10377809543E+00 0.  0.
       11    1    1    2    0    0 -0.18115546845E-02  0.77053130553E-02  0.18715892624E-02  0.81497023961E-02  0.51109989000E-03 0. -1.
     -623    1    1    2    0    0 -0.29546392860E-02 -0.42669379638E-02  0.67300387054E-02  0.25126701437E+02  0.25126700000E+02 0.  1.
     -611    1    3    3    0    0 -0.21164534648E-01  0.43208862253E-01  0.62883632246E+01  0.62885552385E+01  0.10000000000E-01 0. -1.
      611    1    3    3    0    0  0.25930728618E-01 -0.46647237345E-01  0.57030351366E+01  0.57032936218E+01  0.10000000000E-01 0.  1.
</event>
<event>
 7   0  0.6206631E-02  0.9118800E+02  0.7818608E-02  0.1180000E+00
       11   -1    0    0    0    0  0.00000000000E+00  0.00000000000E+00  0.11999999989E+02  0.12000000000E+02  0.51109989000E-03 0.  1.
     -623   -1    0    0    0    0  0.00000000000E+00  0.00000000000E+00  0.42561509872E-11  0.25126700000E+02  0.25126700000E+02 0.  1.
      622    2    1    2    0    0  0.68516328947E-03 -0.73540779597E-01  0.84519069059E+01  0.84540700446E+01  0.17652551572E+00 0.  0.
       11    1    1    2    0    0 -0.17377329744E-01  0.57114405330E-01  0.35454162732E+01  0.35459188990E+01  0.51109989000E-03 0.  1.
     -623    1    1    2    0    0  0.16692166454E-01  0.16426374267E-01  0.26768100115E-02  0.25126711056E+02  0.25126700000E+02 0.  1.
     -611    1    3    3    0    0  0.21214044325E-01 -0.11218193350E+00  0.76826712612E+01  0.76835260480E+01  0.10000000000E-01 0.  1.
      611    1    3    3    0    0 -0.20528881035E-01  0.38641153899E-01  0.76923564462E+00  0.77054399659E+00  0.10000000000E-01 0. -1.
</event>
<event>
 7   0  0.6206631E-02  0.9118800E+02  0.7818608E-02  0.1180000E+00
       11   -1    0    0    0    0  0.00000000000E+00  0.00000000000E+00  0.11999999989E+02  0.12000000000E+02  0.51109989000E-03 0.  1.
     -623   -1    0    0    0    0  0.00000000000E+00  0.00000000000E+00  0.42561509872E-11  0.25126700000E+02  0.25126700000E+02 0.  1.
      622    2    1    2    0    0  0.36849383965E-01 -0.30538416865E-01  0.11558869569E+02  0.11559321139E+02  0.90271794939E-01 0.  0.
       11    1    1    2    0    0 -0.21227300619E-01  0.38897347546E-01  0.43843855080E+00  0.44067247020E+00  0.51109989000E-03 0.  1.
     -623    1    1    2    0    0 -0.15622083347E-01 -0.83589306814E-02  0.26918689359E-02  0.25126706391E+02  0.25126700000E+02 0.  1.
     -611    1    3    3    0    0  0.28085383887E-01  0.18547040231E-01  0.81165647597E+01  0.81166407017E+01  0.10000000000E-01 0. -1.
      611    1    3    3    0    0  0.87640000785E-02 -0.49085457096E-01  0.34423048096E+01  0.34426804371E+01  0.10000000000E-01 0.  1.
</event>
<event>
 7   0  0.6206631E-02  0.9118800E+02  0.7818608E-02  0.1180000E+00
       11   -1    0    0    0    0  0.00000000000E+00  0.00000000000E+00  0.11999999989E+02  0.12000000000E+02  0.51109989000E-03 0. -1.
     -623   -1    0    0    0    0  0.00000000000E+00  0.00000000000E+00  0.42561509872E-11  0.25126700000E+02  0.25126700000E+02 0.  1.
      622    2    1    2    0    0  0.24393949658E-01 -0.17014564595E-01  0.10586690085E+02  0.10587179817E+02  0.97390790746E-01 0.  0.
       11    1    1    2    0    0 -0.20206125492E-01  0.29435681176E-01  0.14123654451E+01  0.14128167463E+01  0.51109989000E-03 0. -1.
     -623    1    1    2    0    0 -0.41878241654E-02 -0.12421116581E-01  0.94445938187E-03  0.25126703437E+02  0.25126700000E+02 0.  1.
     -611    1    3    3    0    0 -0.21254801976E-01  0.27288657204E-01  0.29892079523E+01  0.29894247974E+01  0.10000000000E-01 0.  1.
      611    1    3    3    0    0  0.45648751633E-01 -0.44303221799E-01  0.75974821324E+01  0.75977550194E+01  0.10000000000E-01 0. -1.
</event>
<event>
 7   0  0.6206631E-02  0.9118800E+02  0.7818608E-02  0.1180000E+00
       11   -1    0    0    0    0  0.00000000000E+00  0.00000000000E+00  0.11999999989E+02  0.12000000000E+02  0.51109989000E-03 0. -1.
     -623   -1    0    0    0    0  0.00000000000E+00  0.00000000000E+00  0.42561509872E-11  0.25126700000E+02  0.25126700000E+02 0. -1.
      622    2    1    2    0    0  0.73990575953E-02 -0.54448205634E-02  0.11244792726E+02  0.11245182614E+02  0.93188936892E-01 0.  0.
       11    1    1    2    0    0 -0.76793686673E-02  0.13681992972E-01  0.75465277141E+00  0.75481602809E+00  0.51109989000E-03 0. -1.
     -623    1    1    2    0    0  0.28031107208E-03 -0.82371724089E-02  0.55449159144E-03  0.25126701358E+02  0.25126700000E+02 0. -1.
     -611    1    3    3    0    0 -0.12011681726E-01  0.16414607314E-02  0.33746337604E+00  0.33782910629E+00  0.10000000000E-01 0. -1.
      611    1    3    3    0    0  0.19410739322E-01 -0.70862812947E-02  0.10907329350E+02  0.10907353508E+02  0.10000000000E-01 0. -1.
</event>
<event>
 7   0  0.6206631E-02  0.9118800E+02  0.7818608E-02  0.1180000E+00
       11   -1    0    0    0    0  0.00000000000E+00  0.00000000000E+00  0.11999999989E+02  0.12000000000E+02  0.51109989000E-03 0. -1.
     -623   -1    0    0    0    0  0.00000000000E+00  0.00000000000E+00  0.42561509872E-11  0.25126700000E+02  0.25126700000E+02 0. -1.
      622    2    1    2    0    0  0.15622317099E-02 -0.48413295396E-02  0.11407223532E+02  0.11407555109E+02  0.86827292473E-01 0.  0.
       11    1    1    2    0    0 -0.30447828972E-02  0.29245472222E-03  0.59243631635E+00  0.59244443316E+00  0.51109989000E-03 0. -1.
     -623    1    1    2    0    0  0.14825511873E-02  0.45488748173E-02  0.34014081470E-03  0.25126700458E+02  0.25126700000E+02 0. -1.
     -611    1    3    3    0    0  0.34615349682E-01  0.82376146873E-02  0.87146734486E+01  0.87147518264E+01  0.10000000000E-01 0. -1.
      611    1    3    3    0    0 -0.33053117972E-01 -0.13078944227E-01  0.26925500834E+01  0.26928032827E+01  0.10000000000E-01 0.  1.
</event>
<event>
 7   0  0.6206631E-02  0.9118800E+02  0.7818608E-02  0.1180000E+00
       11   -1    0    0    0    0  0.00000000000E+00  0.00000000000E+00  0.11999999989E+02  0.12000000000E+02  0.51109989000E-03 0. -1.
     -623   -1    0    0    0    0  0.00000000000E+00  0.00000000000E+00  0.42561509872E-11  0.25126700000E+02  0.25126700000E+02 0. -1.
      622    2    1    2    0    0 -0.44682302912E-03 -0.20426069763E-02  0.11465674989E+02  0.11465739050E+02  0.38270616894E-01 0.  0.
       11    1    1    2    0    0  0.31053620881E-03  0.20842749073E-02  0.53425654917E+00  0.53426094953E+00  0.51109989000E-03 0. -1.
     -623    1    1    2    0    0  0.13628682030E-03 -0.41667931039E-04  0.68451091305E-04  0.25126700000E+02  0.25126700000E+02 0. -1.
     -611    1    3    3    0    0  0.78634730984E-02 -0.51131502464E-02  0.98281207056E+01  0.98281302689E+01  0.10000000000E-01 0. -1.
      611    1    3    3    0    0 -0.83102961275E-02  0.30705432702E-02  0.16375542835E+01  0.16376087813E+01  0.10000000000E-01 0. -1.
</event>
<event>
 7   0  0.6206631E-02  0.9118800E+02  0.7818608E-02  0.1180000E+00
       11   -1    0    0    0    0  0.00000000000E+00  0.00000000000E+00  0.11999999989E+02  0.12000000000E+02  0.51109989000E-03 0. -1.
     -623   -1    0    0    0    0  0.00000000000E+00  0.00000000000E+00  0.42561509872E-11  0.25126700000E+02  0.25126700000E+02 0.  1.
      622    2    1    2    0    0  0.15897647283E-02 -0.53890386667E-02  0.11952841975E+02  0.11953891670E+02  0.15831366242E+00 0.  0.
       11    1    1    2    0    0  0.20557469251E-01 -0.23365218021E-01  0.33977031261E-01  0.46078659178E-01  0.51109989000E-03 0. -1.
     -623    1    1    2    0    0 -0.22147233979E-01  0.28754256688E-01  0.13180982812E-01  0.25126729671E+02  0.25126700000E+02 0.  1.
     -611    1    3    3    0    0 -0.62614508926E-02  0.64855953324E-01  0.87767441908E+01  0.87769917449E+01  0.10000000000E-01 0. -1.
      611    1    3    3    0    0  0.78512156209E-02 -0.70244991990E-01  0.31760977843E+01  0.31768999253E+01  0.10000000000E-01 0.  1.
</event>
<event>
 7   0  0.6206631E-02  0.9118800E+02  0.7818608E-02  0.1180000E+00
       11   -1    0    0    0    0  0.00000000000E+00  0.00000000000E+00  0.11999999989E+02  0.12000000000E+02  0.51109989000E-03 0.  1.
     -623   -1    0    0    0    0  0.00000000000E+00  0.00000000000E+00  0.42561509872E-11  0.25126700000E+02  0.25126700000E+02 0. -1.
      622    2    1    2    0    0 -0.57654104995E-02 -0.59874936643E-02  0.11815603128E+02  0.11816093818E+02  0.10736264665E+00 0.  0.
       11    1    1    2    0    0  0.18330436630E-02  0.38425457265E-02  0.18385578146E+00  0.18390577698E+00  0.51109989000E-03 0.  1.
     -623    1    1    2    0    0  0.39323668365E-02  0.21449479378E-02  0.54107932769E-03  0.25126700405E+02  0.25126700000E+02 0. -1.
     -611    1    3    3    0    0 -0.16579114564E-02 -0.51641227083E-01  0.39470856672E+01  0.39474364883E+01  0.10000000000E-01 0. -1.
      611    1    3    3    0    0 -0.41074990430E-02  0.45653733419E-01  0.78685174611E+01  0.78686573296E+01  0.10000000000E-01 0.  1.
</event>
<event>
 7   0  0.6206631E-02  0.9118800E+02  0.7818608E-02  0.1180000E+00
       11   -1    0    0    0    0  0.00000000000E+00  0.00000000000E+00  0.11999999989E+02  0.12000000000E+02  0.51109989000E-03 0.  1.
     -623   -1    0    0    0    0  0.00000000000E+00  0.00000000000E+00  0.42561509872E-11  0.25126700000E+02  0.25126700000E+02 0.  1.
      622    2    1    2    0    0 -0.38246138383E-01 -0.38598153329E-02  0.10974202173E+02  0.10974673156E+02  0.94126985254E-01 0.  0.
       11    1    1    2    0    0  0.14350799557E-01  0.18043297304E-01  0.10250521149E+01  0.10253114675E+01  0.51109989000E-03 0.  1.
     -623    1    1    2    0    0  0.23895338826E-01 -0.14183481971E-01  0.74570147741E-03  0.25126715376E+02  0.25126700000E+02 0.  1.
     -611    1    3    3    0    0  0.24545109756E-01 -0.21594574037E-01  0.29096814017E+01  0.29098822394E+01  0.10000000000E-01 0.  1.
      611    1    3    3    0    0 -0.62791248139E-01  0.17734758704E-01  0.80645207711E+01  0.80647909167E+01  0.10000000000E-01 0. -1.
</event>
<event>
 7   0  0.6206631E-02  0.9118800E+02  0.7818608E-02  0.1180000E+00
       11   -1    0    0    0    0  0.00000000000E+00  0.00000000000E+00  0.11999999989E+02  0.12000000000E+02  0.51109989000E-03 0.  1.
     -623   -1    0    0    0    0  0.00000000000E+00  0.00000000000E+00  0.42561509872E-11  0.25126700000E+02  0.25126700000E+02 0.  1.
      622    2    1    2    0    0  0.62499661432E-01 -0.25069935892E-02  0.60760998758E+01  0.60769372497E+01  0.79146345114E-01 0.  0.
       11    1    1    2    0    0 -0.42905533937E-01 -0.25774948579E-01  0.59228276630E+01  0.59230391709E+01  0.51109989000E-03 0.  1.
     -623    1    1    2    0    0 -0.19594127495E-01  0.28281942168E-01  0.10724503859E-02  0.25126723579E+02  0.25126700000E+02 0.  1.
     -611    1    3    3    0    0  0.37784055061E-01 -0.79035330450E-02  0.10403950142E+01  0.10411589150E+01  0.10000000000E-01 0. -1.
      611    1    3    3    0    0  0.24715606370E-01  0.53965394558E-02  0.50357048616E+01  0.50357783347E+01  0.10000000000E-01 0.  1.
</event>
<event>
 7   0  0.6206631E-02  0.9118800E+02  0.7818608E-02  0.1180000E+00
       11   -1    0    0    0    0  0.00000000000E+00  0.00000000000E+00  0.11999999989E+02  0.12000000000E+02  0.51109989000E-03 0. -1.
     -623   -1    0    0    0    0  0.00000000000E+00  0.00000000000E+00  0.42561509872E-11  0.25126700000E+02  0.25126700000E+02 0. -1.
      622    2    1    2    0    0  0.40109848143E-02 -0.60462631206E-03  0.11971306741E+02  0.11971502989E+02  0.68427199385E-01 0.  0.
       11    1    1    2    0    0  0.88129768834E-02  0.79236090776E-02  0.25905794587E-01  0.28492517591E-01  0.51109989000E-03 0. -1.
     -623    1    1    2    0    0 -0.12823961698E-01 -0.73189827655E-02  0.27874534590E-02  0.25126704493E+02  0.25126700000E+02 0. -1.
     -611    1    3    3    0    0  0.29826317717E-02  0.10808312757E-01  0.11350610868E+02  0.11350620811E+02  0.10000000000E-01 0. -1.
      611    1    3    3    0    0  0.10283530426E-02 -0.11412939069E-01  0.62069587281E+00  0.62088217821E+00  0.10000000000E-01 0.  1.
</event>
<event>
 7   0  0.6206631E-02  0.9118800E+02  0.7818608E-02  0.1180000E+00
       11   -1    0    0    0    0  0.00000000000E+00  0.00000000000E+00  0.11999999989E+02  0.12000000000E+02  0.51109989000E-03 0.  1.
     -623   -1    0    0    0    0  0.00000000000E+00  0.00000000000E+00  0.42561509872E-11  0.25126700000E+02  0.25126700000E+02 0.  1.
      622    2    1    2    0    0  0.40517362275E-02  0.19962616988E-01  0.10737188940E+02  0.10737813738E+02  0.11402905063E+00 0.  0.
       11    1    1    2    0    0 -0.27186622582E-02 -0.20956126052E-01  0.12620091825E+01  0.12621861939E+01  0.51109989000E-03 0.  1.
     -623    1    1    2    0    0 -0.13330739693E-02  0.99350906406E-03  0.80186678886E-03  0.25126700068E+02  0.25126700000E+02 0.  1.
     -611    1    3    3    0    0  0.21815478583E-01  0.17799298642E-01  0.10376321058E+02  0.10376364076E+02  0.10000000000E-01 0.  1.
      611    1    3    3    0    0 -0.17763742355E-01  0.21633183457E-02  0.36086788139E+00  0.36144966221E+00  0.10000000000E-01 0. -1.
</event>
<event>
 7   0  0.6206631E-02  0.9118800E+02  0.7818608E-02  0.1180000E+00
       11   -1    0    0    0    0  0.00000000000E+00  0.00000000000E+00  0.11999999989E+02  0.12000000000E+02  0.51109989000E-03 0. -1.
     -623   -1    0    0    0    0  0.00000000000E+00  0.00000000000E+00  0.42561509872E-11  0.25126700000E+02  0.25126700000E+02 0.  1.
      622    2    1    2    0    0  0.14932903586E-01  0.60372389085E-02  0.11148475136E+02  0.11148931247E+02  0.99552272073E-01 0.  0.
       11    1    1    2    0    0  0.13905653942E-01 -0.17313775157E-01  0.85075973768E+00  0.85104966160E+00  0.51109989000E-03 0. -1.
     -623    1    1    2    0    0 -0.28838557528E-01  0.11276536249E-01  0.76511554298E-03  0.25126719091E+02  0.25126700000E+02 0.  1.
     -611    1    3    3    0    0  0.52680851306E-01 -0.10474146245E-01  0.47176262821E+01  0.47179426361E+01  0.10000000000E-01 0. -1.
      611    1    3    3    0    0 -0.37747947720E-01  0.16511385153E-01  0.64308488538E+01  0.64309886109E+01  0.10000000000E-01 0. -1.
</event>
<event>
 7   0  0.6206631E-02  0.9118800E+02  0.7818608E-02  0.1180000E+00
       11   -1    0    0    0    0  0.00000000000E+00  0.00000000000E+00  0.11999999989E+02  0.12000000000E+02  0.51109989000E-03 0. -1.
     -623   -1    0    0    0    0  0.00000000000E+00  0.00000000000E+00  0.42561509872E-11  0.25126700000E+02  0.25126700000E+02 0.  1.
      622    2    1    2    0    0  0.40359303274E-03  0.37756819930E-02  0.11996325511E+02  0.11996744088E+02  0.10014253622E+00 0.  0.
       11    1    1    2    0    0 -0.12987525090E-02  0.29393488971E-02 -0.73764729850E-04  0.32547187844E-02  0.51109989000E-03 0. -1.
     -623    1    1    2    0    0  0.89515947624E-03 -0.67150308901E-02  0.37482423982E-02  0.25126701193E+02  0.25126700000E+02 0.  1.
     -611    1    3    3    0    0  0.48359605875E-01  0.99072611139E-02  0.54724047866E+01  0.54726365633E+01  0.10000000000E-01 0. -1.
      611    1    3    3    0    0 -0.47956012843E-01 -0.61315791209E-02  0.65239207248E+01  0.65241075251E+01  0.10000000000E-01 0.  1.
</event>
<event>
 7   0  0.6206631E-02  0.9118800E+02  0.7818608E-02  0.1180000E+00
       11   -1    0    0    0    0  0.00000000000E+00  0.00000000000E+00  0.11999999989E+02  0.12000000000E+02  0.51109989000E-03 0.  1.
     -623   -1    0    0    0    0  0.00000000000E+00  0.00000000000E+00  0.42561509872E-11  0.25126700000E+02  0.25126700000E+02 0.  1.
      622    2    1    2    0    0  0.11059974541E-02 -0.98836922813E-05  0.11955472194E+02  0.11955641158E+02  0.63552284861E-01 0.  0.
       11    1    1    2    0    0 -0.15356597309E-02 -0.26027382320E-03  0.44328536307E-01  0.44358836183E-01  0.51109989000E-03 0.  1.
     -623    1    1    2    0    0  0.42966227689E-03  0.27015751548E-03  0.19925886574E-03  0.25126700006E+02  0.25126700000E+02 0.  1.
     -611    1    3    3    0    0  0.14108516418E-03 -0.45620792361E-02  0.11584089485E+02  0.11584094701E+02  0.10000000000E-01 0.  1.
      611    1    3    3    0    0  0.96491228987E-03  0.45521955438E-02  0.37138270853E+00  0.37154645703E+00  0.10000000000E-01 0.  1.
</event>
<event>
 7   0  0.6206631E-02  0.9118800E+02  0.7818608E-02  0.1180000E+00
       11   -1    0    0    0    0  0.00000000000E+00  0.00000000000E+00  0.11999999989E+02  0.12000000000E+02  0.51109989000E-03 0. -1.
     -623   -1    0    0    0    0  0.00000000000E+00  0.00000000000E+00  0.42561509872E-11  0.25126700000E+02  0.25126700000E+02 0. -1.
      622    2    1    2    0    0  0.17413946580E-02  0.10350965808E-02  0.11960561179E+02  0.11960710309E+02  0.59693226017E-01 0.  0.
       11    1    1    2    0    0 -0.12668484194E-02 -0.11987757412E-02  0.39247626664E-01  0.39289685543E-01  0.51109989000E-03 0. -1.
     -623    1    1    2    0    0 -0.47454623857E-03  0.16367916043E-03  0.19118398702E-03  0.25126700006E+02  0.25126700000E+02 0. -1.
     -611    1    3    3    0    0 -0.51674862434E-02 -0.26945836771E-01  0.57014443572E+01  0.57015191431E+01  0.10000000000E-01 0.  1.
      611    1    3    3    0    0  0.69088809013E-02  0.27980933352E-01  0.62591168213E+01  0.62591911656E+01  0.10000000000E-01 0. -1.
</event>
<event>
 7   0  0.6206631E-02  0.9118800E+02  0.7818608E-02  0.1180000E+00
       11   -1    0    0    0    0  0.00000000000E+00  0.00000000000E+00  0.11999999989E+02  0.12000000000E+02  0.51109989000E-03 0. -1.
     -623   -1    0    0    0    0  0.00000000000E+00  0.00000000000E+00  0.42561509872E-11  0.25126700000E+02  0.25126700000E+02 0.  1.
      622    2    1    2    0    0  0.21340486558E-01 -0.65516525757E-02  0.85922009377E+01  0.85926733457E+01  0.87292215589E-01 0.  0.
       11    1    1    2    0    0 -0.14840308688E-01  0.16274841655E-01  0.34072527016E+01  0.34073239263E+01  0.51109989000E-03 0. -1.
     -623    1    1    2    0    0 -0.65001778697E-02 -0.97231890796E-02  0.54634982075E-03  0.25126702728E+02  0.25126700000E+02 0.  1.
     -611    1    3    3    0    0  0.44360139750E-01 -0.47100477092E-02  0.76493933590E+01  0.76495299703E+01  0.10000000000E-01 0. -1.
      611    1    3    3    0    0 -0.23019653192E-01 -0.18416048665E-02  0.94280757875E+00  0.94314337536E+00  0.10000000000E-01 0.  1.
</event>
<event>
 7   0  0.6206631E-02  0.9118800E+02  0.7818608E-02  0.1180000E+00
       11   -1    0    0    0    0  0.00000000000E+00  0.00000000000E+00  0.11999999989E+02  0.12000000000E+02  0.51109989000E-03 0. -1.
     -623   -1    0    0    0    0  0.00000000000E+00  0.00000000000E+00  0.42561509872E-11  0.25126700000E+02  0.25126700000E+02 0.  1.
      622    2    1    2    0    0 -0.34115336504E-01  0.67098004935E-01  0.67876186421E+01  0.67885431888E+01  0.82980703939E-01 0.  0.
       11    1    1    2    0    0  0.25884695863E-01 -0.49345833961E-01  0.52111512240E+01  0.52114491621E+01  0.51109989000E-03 0. -1.
     -623    1    1    2    0    0  0.82306406410E-02 -0.17752170974E-01  0.12301231081E-02  0.25126707649E+02  0.25126700000E+02 0.  1.
     -611    1    3    3    0    0 -0.57903199122E-01  0.29459619247E-01  0.43632363067E+01  0.43637313984E+01  0.10000000000E-01 0. -1.
      611    1    3    3    0    0  0.23787862618E-01  0.37638385689E-01  0.24243823354E+01  0.24248117904E+01  0.10000000000E-01 0.  1.
</event>
<event>
 7   0  0.6206631E-02  0.9118800E+02  0.7818608E-02  0.1180000E+00
       11   -1    0    0    0    0  0.00000000000E+00  0.00000000000E+00  0.11999999989E+02  0.12000000000E+02  0.51109989000E-03 0.  1.
     -623   -1    0    0    0    0  0.00000000000E+00  0.00000000000E+00  0.42561509872E-11  0.25126700000E+02  0.25126700000E+02 0.  1.
      622    2    1    2    0    0  0.38882786012E-01 -0.16999083842E+00  0.32351024961E+01  0.32413305457E+01  0.99633278347E-01 0.  0.
       11    1    1    2    0    0 -0.19032189729E-03  0.19291728405E+00  0.87565029315E+01  0.87586278015E+01  0.51109989000E-03 0.  1.
     -623    1    1    2    0    0 -0.38692464115E-01 -0.22926445633E-01  0.83945615615E-02  0.25126741653E+02  0.25126700000E+02 0.  1.
     -611    1    3    3    0    0  0.15827874247E-01  0.85023362789E-02  0.34580280042E+00  0.34641360842E+00  0.10000000000E-01 0. -1.
      611    1    3    3    0    0  0.23054911765E-01 -0.17849317470E+00  0.28892996956E+01  0.28949169372E+01  0.10000000000E-01 0.  1.
</event>
<event>
 7   0  0.6206631E-02  0.9118800E+02  0.7818608E-02  0.1180000E+00
       11   -1    0    0    0    0  0.00000000000E+00  0.00000000000E+00  0.11999999989E+02  0.12000000000E+02  0.51109989000E-03 0. -1.
     -623   -1    0    0    0    0  0.00000000000E+00  0.00000000000E+00  0.42561509872E-11  0.25126700000E+02  0.25126700000E+02 0.  1.
      622    2    1    2    0    0  0.13250014443E-01  0.39937648187E-03  0.11978682164E+02  0.11979069932E+02  0.95468980483E-01 0.  0.
       11    1    1    2    0    0  0.53170701450E-02  0.89105274508E-02  0.18159576212E-01  0.20921284992E-01  0.51109989000E-03 0. -1.
     -623    1    1    2    0    0 -0.18567084588E-01 -0.93099039327E-02  0.31582490532E-02  0.25126708783E+02  0.25126700000E+02 0.  1.
     -611    1    3    3    0    0 -0.37634758423E-01  0.24404893561E-02  0.32631881097E+01  0.32634213596E+01  0.10000000000E-01 0. -1.
      611    1    3    3    0    0  0.50884772866E-01 -0.20411128742E-02  0.87154940542E+01  0.87156485722E+01  0.10000000000E-01 0.  1.
</event>
<event>
 7   0  0.6206631E-02  0.9118800E+02  0.7818608E-02  0.1180000E+00
       11   -1    0    0    0    0  0.00000000000E+00  0.00000000000E+00  0.11999999989E+02  0.12000000000E+02  0.51109989000E-03 0.  1.
     -623   -1    0    0    0    0  0.00000000000E+00  0.00000000000E+00  0.42561509872E-11  0.25126700000E+02  0.25126700000E+02 0. -1.
      622    2    1    2    0    0 -0.29074567224E-01 -0.21077074747E-01  0.25328257884E+01  0.25343736344E+01  0.80954745539E-01 0.  0.
       11    1    1    2    0    0  0.39796357261E-01  0.28505618767E-01  0.94654963291E+01  0.94656229239E+01  0.51109989000E-03 0.  1.
     -623    1    1    2    0    0 -0.10721790037E-01 -0.74285440195E-02  0.16778716016E-02  0.25126703442E+02  0.25126700000E+02 0. -1.
     -611    1    3    3    0    0  0.24216153500E-01  0.73038804667E-02  0.70995817069E+00  0.71047897427E+00  0.10000000000E-01 0.  1.
      611    1    3    3    0    0 -0.53290720725E-01 -0.28380955214E-01  0.18228676177E+01  0.18238946602E+01  0.10000000000E-01 0. -1.
</event>
<event>
 7   0  0.6206631E-02  0.9118800E+02  0.7818608E-02  0.1180000E+00
       11   -1    0    0    0    0  0.00000000000E+00  0.00000000000E+00  0.11999999989E+02  0.12000000000E+02  0.51109989000E-03 0.  1.
     -623   -1    0    0    0    0  0.00000000000E+00  0.00000000000E+00  0.42561509872E-11  0.25126700000E+02  0.25126700000E+02 0.  1.
      622    2    1    2    0    0  0.33462092209E-02 -0.87444102094E-03  0.11982461315E+02  0.11982954087E+02  0.10861640325E+00 0.  0.
       11    1    1    2    0    0 -0.28582013546E-02  0.29957071338E-02  0.16527384682E-01  0.17045798421E-01  0.51109989000E-03 0.  1.
     -623    1    1    2    0    0 -0.48800786627E-03 -0.21212661129E-02  0.10112894542E-02  0.25126700115E+02  0.25126700000E+02 0.  1.
     -611    1    3    3    0    0 -0.24560944663E-01  0.18472915884E-01  0.12012958064E+01  0.12017304619E+01  0.10000000000E-01 0. -1.
      611    1    3    3    0    0  0.27907153884E-01 -0.19347356905E-01  0.10781165509E+02  0.10781223625E+02  0.10000000000E-01 0.  1.
</event>
<event>
 7   0  0.6206631E-02  0.9118800E+02  0.7818608E-02  0.1180000E+00
       11   -1    0    0    0    0  0.00000000000E+00  0.00000000000E+00  0.11999999989E+02  0.12000000000E+02  0.51109989000E-03 0.  1.
     -623   -1    0    0    0    0  0.00000000000E+00  0.00000000000E+00  0.42561509872E-11  0.25126700000E+02  0.25126700000E+02 0. -1.
      622    2    1    2    0    0  0.19564649213E-01 -0.81332319522E-03  0.71563885102E+01  0.71567229372E+01  0.66357011731E-01 0.  0.
       11    1    1    2    0    0 -0.16684501716E-01 -0.26806159172E-03  0.48432480993E+01  0.48432768718E+01  0.51109989000E-03 0.  1.
     -623    1    1    2    0    0 -0.28801474970E-02  0.10813847869E-02  0.36337953567E-03  0.25126700191E+02  0.25126700000E+02 0. -1.
     -611    1    3    3    0    0 -0.43015691750E-02  0.24806967923E-01  0.17284597513E+01  0.17286720339E+01  0.10000000000E-01 0. -1.
      611    1    3    3    0    0  0.23866218388E-01 -0.25620291118E-01  0.54279287590E+01  0.54280509032E+01  0.10000000000E-01 0. -1.
</event>
<event>
 7   0  0.6206631E-02  0.9118800E+02  0.7818608E-02  0.1180000E+00
       11   -1    0    0    0    0  0.00000000000E+00  0.00000000000E+00  0.11999999989E+02  0.12000000000E+02  0.51109989000E-03 0.  1.
     -623   -1    0    0    0    0  0.00000000000E+00  0.00000000000E+00  0.42561509872E-11  0.25126700000E+02  0.25126700000E+02 0. -1.
      622    2    1    2    0    0 -0.19535332568E-02  0.55968534812E-03  0.11994986227E+02  0.11995370201E+02  0.95955856925E-01 0.  0.
       11    1    1    2    0    0  0.37582293653E-03  0.20072566103E-02  0.41233091824E-02  0.46296029781E-02  0.51109989000E-03 0.  1.
     -623    1    1    2    0    0  0.15777103203E-02 -0.25669419584E-02  0.89045263272E-03  0.25126700196E+02  0.25126700000E+02 0. -1.
     -611    1    3    3    0    0  0.26731314490E-02  0.28006059222E-01  0.10717777746E+02  0.10717819335E+02  0.10000000000E-01 0.  1.
      611    1    3    3    0    0 -0.46266647058E-02 -0.27446373874E-01  0.12772084810E+01  0.12775508653E+01  0.10000000000E-01 0.  1.
</event>
<event>
 7   0  0.6206631E-02  0.9118800E+02  0.7818608E-02  0.1180000E+00
       11   -1    0    0    0    0  0.00000000000E+00  0.00000000000E+00  0.11999999989E+02  0.12000000000E+02  0.51109989000E-03 0.  1.
     -623   -1    0    0    0    0  0.00000000000E+00  0.00000000000E+00  0.42561509872E-11  0.25126700000E+02  0.25126700000E+02 0.  1.
      622    2    1    2    0    0 -0.36360336514E-01  0.57306291016E-01  0.54859747051E+01  0.54871392417E+01  0.90401925218E-01 0.  0.
       11    1    1    2    0    0  0.56423812977E-01 -0.10241180008E+00  0.65117624467E+01  0.65128121612E+01  0.51109989000E-03 0.  1.
     -623    1    1    2    0    0 -0.20063476463E-01  0.45105509069E-01  0.22628373128E-02  0.25126748597E+02  0.25126700000E+02 0.  1.
     -611    1    3    3    0    0  0.11123162530E-01  0.53572408539E-01  0.18421016403E+01  0.18429411767E+01  0.10000000000E-01 0.  1.
      611    1    3    3    0    0 -0.47483499044E-01  0.37338824774E-02  0.36438730648E+01  0.36441980650E+01  0.10000000000E-01 0. -1.
</event>
<event>
 7   0  0.6206631E-02  0.9118800E+02  0.7818608E-02  0.1180000E+00
       11   -1    0    0    0    0  0.00000000000E+00  0.00000000000E+00  0.11999999989E+02  0.12000000000E+02  0.51109989000E-03 0.  1.
     -623   -1    0    0    0    0  0.00000000000E+00  0.00000000000E+00  0.42561509872E-11  0.25126700000E+02  0.25126700000E+02 0.  1.
      622    2    1    2    0    0 -0.54063503516E-02  0.46826529444E-02  0.11943213905E+02  0.11943688296E+02  0.10620999444E+00 0.  0.
       11    1    1    2    0    0 -0.75215566376E-02 -0.14144251428E-01  0.53977035098E-01  0.56306440163E-01  0.51109989000E-03 0.  1.
     -623    1    1    2    0    0  0.12927906989E-01  0.94615984838E-02  0.28090488439E-02  0.25126705264E+02  0.25126700000E+02 0.  1.
     -611    1    3    3    0    0 -0.29242658267E-01 -0.42546267114E-01  0.60288900142E+01  0.60291193488E+01  0.10000000000E-01 0.  1.
      611    1    3    3    0    0  0.23836307916E-01  0.47228920059E-01  0.59143238910E+01  0.59145689469E+01  0.10000000000E-01 0. -1.
</event>
<event>
 7   0  0.6206631E-02  0.9118800E+02  0.7818608E-02  0.1180000E+00
       11   -1    0    0    0    0  0.00000000000E+00  0.00000000000E+00  0.11999999989E+02  0.12000000000E+02  0.51109989000E-03 0. -1.
     -623   -1    0    0    0    0  0.00000000000E+00  0.00000000000E+00  0.42561509872E-11  0.25126700000E+02  0.25126700000E+02 0.  1.
      622    2    1    2    0    0 -0.15462230650E-02 -0.19015620812E-02  0.11974918629E+02  0.11975262510E+02  0.90719396435E-01 0.  0.
       11    1    1    2    0    0  0.24173492967E-03  0.28200853697E-02  0.24569658481E-01  0.24737434352E-01  0.51109989000E-03 0. -1.
     -623    1    1    2    0    0  0.13044881353E-02 -0.91852328851E-03  0.51170199340E-03  0.25126700056E+02  0.25126700000E+02 0.  1.
     -611    1    3    3    0    0  0.21729299617E-01 -0.29750308006E-01  0.93068647081E+01  0.93069429964E+01  0.10000000000E-01 0. -1.
      611    1    3    3    0    0 -0.23275522682E-01  0.27848745925E-01  0.26680539206E+01  0.26683195134E+01  0.10000000000E-01 0.  1.
</event>
<event>
 7   0  0.6206631E-02  0.9118800E+02  0.7818608E-02  0.1180000E+00
       11   -1    0    0    0    0  0.00000000000E+00  0.00000000000E+00  0.11999999989E+02  0.12000000000E+02  0.51109989000E-03 0.  1.
     -623   -1    0    0    0    0  0.00000000000E+00  0.00000000000E+00  0.42561509872E-11  0.25126700000E+02  0.25126700000E+02 0.  1.
      622    2    1    2    0    0 -0.13831730840E-01  0.78775460918E-02  0.11670387442E+02  0.11670859973E+02  0.10380795250E+00 0.  0.
       11    1    1    2    0    0 -0.61621891178E-03 -0.29565708599E-02  0.32912113344E+00  0.32913538664E+00  0.51109989000E-03 0.  1.
     -623    1    1    2    0    0  0.14447949752E-01 -0.49209752319E-02  0.49141383633E-03  0.25126704640E+02  0.25126700000E+02 0.  1.
     -611    1    3    3    0    0 -0.21475219509E-01  0.20807391912E-01  0.11290673090E+02  0.11290717114E+02  0.10000000000E-01 0.  1.
      611    1    3    3    0    0  0.76434886689E-02 -0.12929845820E-01  0.37971435231E+00  0.38014285891E+00  0.10000000000E-01 0. -1.
</event>
<event>
 7   0  0.6206631E-02  0.9118800E+02  0.7818608E-02  0.1180000E+00
       11   -1    0    0    0    0  0.00000000000E+00  0.00000000000E+00  0.11999999989E+02  0.12000000000E+02  0.51109989000E-03 0.  1.
     -623   -1    0    0    0    0  0.00000000000E+00  0.00000000000E+00  0.42561509872E-11  0.25126700000E+02  0.25126700000E+02 0. -1.
      622    2    1    2    0    0 -0.15176846559E-01  0.36889250563E-01  0.72010514698E+01  0.72021701625E+01  0.12050570474E+00 0.  0.
       11    1    1    2    0    0  0.13229493597E-01 -0.32040727611E-01  0.47977040084E+01  0.47978292634E+01  0.51109989000E-03 0.  1.
     -623    1    1    2    0    0  0.19473529616E-02 -0.48485229526E-02  0.12445109009E-02  0.25126700574E+02  0.25126700000E+02 0. -1.
     -611    1    3    3    0    0 -0.24522371447E-01  0.34671741872E-02  0.34797366323E+00  0.34899718953E+00  0.10000000000E-01 0. -1.
      611    1    3    3    0    0  0.93455248888E-02  0.33422076376E-01  0.68530778066E+01  0.68531729729E+01  0.10000000000E-01 0.  1.
</event>
<event>
 7   0  0.6206631E-02  0.9118800E+02  0.7818608E-02  0.1180000E+00
       11   -1    0    0    0    0  0.00000000000E+00  0.00000000000E+00  0.11999999989E+02  0.12000000000E+02  0.51109989000E-03 0.  1.
     -623   -1    0    0    0    0  0.00000000000E+00  0.00000000000E+00  0.42561509872E-11  0.25126700000E+02  0.25126700000E+02 0. -1.
      622    2    1    2    0    0 -0.94124103665E-02 -0.40230130582E-01  0.11033380904E+02  0.11034050271E+02  0.11429854048E+00 0.  0.
       11    1    1    2    0    0  0.27353363673E-01  0.30253659711E-01  0.96507970459E+00  0.96594129628E+00  0.51109989000E-03 0.  1.
     -623    1    1    2    0    0 -0.17940953307E-01  0.99764708709E-02  0.15393807607E-02  0.25126708433E+02  0.25126700000E+02 0. -1.
     -611    1    3    3    0    0 -0.36065484208E-01 -0.70594567697E-01  0.73308198503E+01  0.73312552806E+01  0.10000000000E-01 0.  1.
      611    1    3    3    0    0  0.26653073842E-01  0.30364437115E-01  0.37025610535E+01  0.37027949903E+01  0.10000000000E-01 0. -1.
</event>
<event>
 7   0  0.6206631E-02  0.9118800E+02  0.7818608E-02  0.1180000E+00
       11   -1    0    0    0    0  0.00000000000E+00  0.00000000000E+00  0.11999999989E+02  0.12000000000E+02  0.51109989000E-03 0.  1.
     -623   -1    0    0    0    0  0.00000000000E+00  0.00000000000E+00  0.42561509872E-11  0.25126700000E+02  0.25126700000E+02 0.  1.
      622    2    1    2    0    0  0.46306414307E-01  0.15598173153E-01  0.66449162848E+01  0.66456842821E+01  0.88428261071E-01 0.  0.
       11    1    1    2    0    0 -0.45995433723E-01 -0.18585416259E-01  0.53540856749E+01  0.53543155186E+01  0.51109989000E-03 0.  1.
     -623    1    1    2    0    0 -0.31098058409E-03  0.29872431058E-02  0.99802939104E-03  0.25126700199E+02  0.25126700000E+02 0.  1.
     -611    1    3    3    0    0  0.49570405244E-02 -0.27505617233E-01  0.99308106024E+00  0.99352459629E+00  0.10000000000E-01 0. -1.
      611    1    3    3    0    0  0.41349373783E-01  0.43103790386E-01  0.56518352246E+01  0.56521596858E+01  0.10000000000E-01 0.  1.
</event>
<event>
 7   0  0.6206631E-02  0.9118800E+02  0.7818608E-02  0.1180000E+00
       11   -1    0    0    0    0  0.00000000000E+00  0.00000000000E+00  0.11999999989E+02  0.12000000000E+02  0.51109989000E-03 0.  1.
     -623   -1    0    0    0    0  0.00000000000E+00  0.00000000000E+00  0.42561509872E-11  0.25126700000E+02  0.25126700000E+02 0.  1.
      622    2    1    2    0    0  0.23010421466E-01  0.52954500293E-02  0.41654895152E+01  0.41665285260E+01  0.89997423082E-01 0.  0.
       11    1    1    2    0    0 -0.18945729774E+00  0.27901108204E-01  0.78305566460E+01  0.78328979431E+01  0.51109989000E-03 0.  1.
     -623    1    1    2    0    0  0.16644687627E+00 -0.33196558233E-01  0.39538280048E-02  0.25127273531E+02  0.25126700000E+02 0.  1.
     -611    1    3    3    0    0  0.28026242949E-01 -0.36023792977E-01  0.16006840657E+01  0.16013658739E+01  0.10000000000E-01 0. -1.
      611    1    3    3    0    0 -0.50158214822E-02  0.41319243006E-01  0.25648054495E+01  0.25651626522E+01  0.10000000000E-01 0.  1.
</event>
<event>
 7   0  0.6206631E-02  0.9118800E+02  0.7818608E-02  0.1180000E+00
       11   -1    0    0    0    0  0.00000000000E+00  0.00000000000E+00  0.11999999989E+02  0.12000000000E+02  0.51109989000E-03 0. -1.
     -623   -1    0    0    0    0  0.00000000000E+00  0.00000000000E+00  0.42561509872E-11  0.25126700000E+02  0.25126700000E+02 0.  1.
      622    2    1    2    0    0 -0.21143104076E-01 -0.42741627847E-01  0.98546722160E+01  0.98552700721E+01  0.97518357614E-01 0.  0.
       11    1    1    2    0    0  0.20773098606E-01  0.43333635197E-01  0.21441913919E+01  0.21447298926E+01  0.51109989000E-03 0. -1.
     -623    1    1    2    0    0  0.37000546945E-03 -0.59200734996E-03  0.11363811605E-02  0.25126700035E+02  0.25126700000E+02 0.  1.
     -611    1    3    3    0    0  0.37494902507E-01 -0.23498345862E-01  0.46922044274E+01  0.46924237264E+01  0.10000000000E-01 0.  1.
      611    1    3    3    0    0 -0.58638006583E-01 -0.19243281985E-01  0.51624677887E+01  0.51628463456E+01  0.10000000000E-01 0. -1.
</event>
<event>
 7   0  0.6206631E-02  0.9118800E+02  0.7818608E-02  0.1180000E+00
       11   -1    0    0    0    0  0.00000000000E+00  0.00000000000E+00  0.11999999989E+02  0.12000000000E+02  0.51109989000E-03 0. -1.
     -623   -1    0    0    0    0  0.00000000000E+00  0.00000000000E+00  0.42561509872E-11  0.25126700000E+02  0.25126700000E+02 0.  1.
      622    2    1    2    0    0 -0.11506048373E-01 -0.70058025630E-03  0.10963412761E+02  0.10963719985E+02  0.81262898914E-01 0.  0.
       11    1    1    2    0    0  0.11081727466E-01  0.95059048377E-04  0.10362206168E+01  0.10362800016E+01  0.51109989000E-03 0. -1.
     -623    1    1    2    0    0  0.42432090716E-03  0.60552120792E-03  0.36661130470E-03  0.25126700014E+02  0.25126700000E+02 0.  1.
     -611    1    3    3    0    0 -0.24484732840E-02 -0.39307587770E-01  0.60956199011E+01  0.60957553314E+01  0.10000000000E-01 0.  1.
      611    1    3    3    0    0 -0.90575750889E-02  0.38607007514E-01  0.48677928599E+01  0.48679646535E+01  0.10000000000E-01 0. -1.
</event>
<event>
 7   0  0.6206631E-02  0.9118800E+02  0.7818608E-02  0.1180000E+00
       11   -1    0    0    0    0  0.00000000000E+00  0.00000000000E+00  0.11999999989E+02  0.12000000000E+02  0.51109989000E-03 0. -1.
     -623   -1    0    0    0    0  0.00000000000E+00  0.00000000000E+00  0.42561509872E-11  0.25126700000E+02  0.25126700000E+02 0.  1.
      622    2    1    2    0    0 -0.19059026978E-01  0.22127039518E-01  0.82303284141E+01  0.82309853108E+01  0.99802456287E-01 0.  0.
       11    1    1    2    0    0  0.22139239882E-01 -0.31818203403E-01  0.37688132483E+01  0.37690126169E+01  0.51109989000E-03 0. -1.
     -623    1    1    2    0    0 -0.30802129038E-02  0.96911638852E-02  0.85832670550E-03  0.25126702072E+02  0.25126700000E+02 0.  1.
     -611    1    3    3    0    0  0.36886574664E-01 -0.43159238075E-02  0.22532691280E+01  0.22535973486E+01  0.10000000000E-01 0. -1.
      611    1    3    3    0    0 -0.55945601642E-01  0.26442963325E-01  0.59770592861E+01  0.59773879622E+01  0.10000000000E-01 0.  1.
</event>
<event>
 7   0  0.6206631E-02  0.9118800E+02  0.7818608E-02  0.1180000E+00
       11   -1    0    0    0    0  0.00000000000E+00  0.00000000000E+00  0.11999999989E+02  0.12000000000E+02  0.51109989000E-03 0. -1.
     -623   -1    0    0    0    0  0.00000000000E+00  0.00000000000E+00  0.42561509872E-11  0.25126700000E+02  0.25126700000E+02 0. -1.
      622    2    1    2    0    0  0.13051102143E-02 -0.96676441013E-03  0.11995114531E+02  0.11995537682E+02  0.10074230415E+00 0.  0.
       11    1    1    2    0    0 -0.60504012389E-03  0.14357848388E-03  0.43890913979E-02  0.44622903039E-02  0.51109989000E-03 0. -1.
     -623    1    1    2    0    0 -0.70007009044E-03  0.82318592624E-03  0.49636638682E-03  0.25126700028E+02  0.25126700000E+02 0. -1.
     -611    1    3    3    0    0 -0.13269564291E-01  0.30290294352E-01  0.16538680295E+01  0.16542288361E+01  0.10000000000E-01 0.  1.
      611    1    3    3    0    0  0.14574674505E-01 -0.31257058763E-01  0.10341246502E+02  0.10341308845E+02  0.10000000000E-01 0. -1.
</event>
<event>
 7   0  0.6206631E-02  0.9118800E+02  0.7818608E-02  0.1180000E+00
       11   -1    0    0    0    0  0.00000000000E+00  0.00000000000E+00  0.11999999989E+02  0.12000000000E+02  0.51109989000E-03 0.  1.
     -623   -1    0    0    0    0  0.00000000000E+00  0.00000000000E+00  0.42561509872E-11  0.25126700000E+02  0.25126700000E+02 0. -1.
      622    2    1    2    0    0  0.19677261806E-01 -0.42357754648E-01  0.50348073666E+01  0.50357058204E+01  0.82864445586E-01 0.  0.
       11    1    1    2    0    0 -0.18782125338E-01  0.36756813847E-01  0.69641711726E+01  0.69642935187E+01  0.51109989000E-03 0.  1.
     -623    1    1    2    0    0 -0.89513646797E-03  0.56009408019E-02  0.10214498882E-02  0.25126700661E+02  0.25126700000E+02 0. -1.
     -611    1    3    3    0    0  0.91935790140E-02 -0.63528623437E-01  0.42055591463E+01  0.42060608818E+01  0.10000000000E-01 0. -1.
      611    1    3    3    0    0  0.10483682792E-01  0.21170868788E-01  0.82924822027E+00  0.82964493858E+00  0.10000000000E-01 0.  1.
</event>
<event>
 7   0  0.6206631E-02  0.9118800E+02  0.7818608E-02  0.1180000E+00
       11   -1    0    0    0    0  0.00000000000E+00  0.00000000000E+00  0.11999999989E+02  0.12000000000E+02  0.51109989000E-03 0. -1.
     -623   -1    0    0    0    0  0.00000000000E+00  0.00000000000E+00  0.42561509872E-11  0.25126700000E+02  0.25126700000E+02 0.  1.
      622    2    1    2    0    0  0.27819383019E-01 -0.25207288217E-01  0.83986554040E+01  0.83993299979E+01  0.99611715966E-01 0.  0.
       11    1    1    2    0    0 -0.27962998868E-01  0.22035950181E-01  0.36004937359E+01  0.36006697871E+01  0.51109989000E-03 0. -1.
     -623    1    1    2    0    0  0.14361584843E-03  0.31713380354E-02  0.85084924548E-03  0.25126700215E+02  0.25126700000E+02 0.  1.
     -611    1    3    3    0    0  0.38788730467E-01 -0.53245982916E-01  0.69891224333E+01  0.69894400411E+01  0.10000000000E-01 0.  1.
      611    1    3    3    0    0 -0.10969347448E-01  0.28038694699E-01  0.14095329707E+01  0.14098899568E+01  0.10000000000E-01 0. -1.
</event>
<event>
 7   0  0.6206631E-02  0.9118800E+02  0.7818608E-02  0.1180000E+00
       11   -1    0    0    0    0  0.00000000000E+00  0.00000000000E+00  0.11999999989E+02  0.12000000000E+02  0.51109989000E-03 0. -1.
     -623   -1    0    0    0    0  0.00000000000E+00  0.00000000000E+00  0.42561509872E-11  0.25126700000E+02  0.25126700000E+02 0.  1.
      622    2    1    2    0    0 -0.74301691153E-03 -0.48859252186E-02  0.11982933670E+02  0.11983554487E+02  0.12187849606E+00 0.  0.
       11    1    1    2    0    0  0.35279136191E-02  0.91950997285E-04  0.16053606086E-01  0.16444881301E-01  0.51109989000E-03 0. -1.
     -623    1    1    2    0    0 -0.27848967076E-02  0.47939742213E-02  0.10127129351E-02  0.25126700632E+02  0.25126700000E+02 0.  1.
     -611    1    3    3    0    0  0.28288179841E-01 -0.35003413369E-01  0.20122879105E+01  0.20128159615E+01  0.10000000000E-01 0.  1.
      611    1    3    3    0    0 -0.29031196752E-01  0.30117488151E-01  0.99706457596E+01  0.99707385251E+01  0.10000000000E-01 0. -1.
</event>
<event>
 7   0  0.6206631E-02  0.9118800E+02  0.7818608E-02  0.1180000E+00
       11   -1    0    0    0    0  0.00000000000E+00  0.00000000000E+00  0.11999999989E+02  0.12000000000E+02  0.51109989000E-03 0.  1.
     -623   -1    0    0    0    0  0.00000000000E+00  0.00000000000E+00  0.42561509872E-11  0.25126700000E+02  0.25126700000E+02 0.  1.
      622    2    1    2    0    0  0.71038089737E-02 -0.27002804911E-02  0.11956234144E+02  0.11956898530E+02  0.12581651593E+00 0.  0.
       11    1    1    2    0    0 -0.25244690543E-02  0.20248855142E-02  0.42976325620E-01  0.43101031220E-01  0.51109989000E-03 0.  1.
     -623    1    1    2    0    0 -0.45793399194E-02  0.67539497685E-03  0.78951952442E-03  0.25126700439E+02  0.25126700000E+02 0.  1.
     -611    1    3    3    0    0  0.17643310652E-02 -0.58888849012E-01  0.82997078947E+01  0.82999230205E+01  0.10000000000E-01 0. -1.
      611    1    3    3    0    0  0.53394779086E-02  0.56188568521E-01  0.36565262493E+01  0.36569755095E+01  0.10000000000E-01 0.  1.
</event>
<event>
 7   0  0.6206631E-02  0.9118800E+02  0.7818608E-02  0.1180000E+00
       11   -1    0    0    0    0  0.00000000000E+00  0.00000000000E+00  0.11999999989E+02  0.12000000000E+02  0.51109989000E-03 0.  1.
     -623   -1    0    0    0    0  0.00000000000E+00  0.00000000000E+00  0.42561509872E-11  0.25126700000E+02  0.25126700000E+02 0.  1.
      622    2    1    2    0    0  0.19751671133E-01  0.29430135676E-01  0.90537442094E+01  0.90547919128E+01  0.13310189116E+00 0.  0.
       11    1    1    2    0    0 -0.19001485285E-01 -0.29987175503E-01  0.29449940305E+01  0.29452080382E+01  0.51109989000E-03 0.  1.
     -623    1    1    2    0    0 -0.75018584822E-03  0.55703982644E-03  0.12617492310E-02  0.25126700049E+02  0.25126700000E+02 0.  1.
     -611    1    3    3    0    0 -0.38768585798E-01  0.44215808748E-01  0.66559313721E+01  0.66561986503E+01  0.10000000000E-01 0.  1.
      611    1    3    3    0    0  0.58520256931E-01 -0.14785673071E-01  0.23978128372E+01  0.23985932625E+01  0.10000000000E-01 0. -1.
</event>
<event>
 7   0  0.6206631E-02  0.9118800E+02  0.7818608E-02  0.1180000E+00
       11   -1    0    0    0    0  0.00000000000E+00  0.00000000000E+00  0.11999999989E+02  0.12000000000E+02  0.51109989000E-03 0.  1.
     -623   -1    0    0    0    0  0.00000000000E+00  0.00000000000E+00  0.42561509872E-11  0.25126700000E+02  0.25126700000E+02 0.  1.
      622    2    1    2    0    0 -0.13558218915E-01  0.10118405545E-01  0.11732296223E+02  0.11732600565E+02  0.82795786852E-01 0.  0.
       11    1    1    2    0    0  0.15296337962E-01 -0.90748244556E-02  0.26680669772E+00  0.26739933726E+00  0.51109989000E-03 0.  1.
     -623    1    1    2    0    0 -0.17381190470E-02 -0.10435810896E-02  0.89706829323E-03  0.25126700098E+02  0.25126700000E+02 0.  1.
     -611    1    3    3    0    0  0.23650300491E-01  0.31330808715E-01  0.55127423096E+01  0.55128911406E+01  0.10000000000E-01 0. -1.
      611    1    3    3    0    0 -0.37208519407E-01 -0.21212403170E-01  0.62195539135E+01  0.62197094243E+01  0.10000000000E-01 0.  1.
</event>
<event>
 7   0  0.6206631E-02  0.9118800E+02  0.7818608E-02  0.1180000E+00
       11   -1    0    0    0    0  0.00000000000E+00  0.00000000000E+00  0.11999999989E+02  0.12000000000E+02  0.51109989000E-03 0. -1.
     -623   -1    0    0    0    0  0.00000000000E+00  0.00000000000E+00  0.42561509872E-11  0.25126700000E+02  0.25126700000E+02 0. -1.
      622    2    1    2    0    0  0.82098709654E-02  0.63249582410E-02  0.11955960307E+02  0.11956595347E+02  0.12279254117E+00 0.  0.
       11    1    1    2    0    0 -0.14262163133E-01 -0.88216980087E-02  0.40029604372E-01  0.43403480302E-01  0.51109989000E-03 0. -1.
     -623    1    1    2    0    0  0.60522921678E-02  0.24967397677E-02  0.40100774093E-02  0.25126701173E+02  0.25126700000E+02 0. -1.
     -611    1    3    3    0    0 -0.53819020535E-01  0.19166758125E-01  0.48866501317E+01  0.48869943075E+01  0.10000000000E-01 0.  1.
      611    1    3    3    0    0  0.62028891501E-01 -0.12841799884E-01  0.70693101757E+01  0.70696010393E+01  0.10000000000E-01 0. -1.
</event>
<event>
 7   0  0.6206631E-02  0.9118800E+02  0.7818608E-02  0.1180000E+00
       11   -1    0    0    0    0  0.00000000000E+00  0.00000000000E+00  0.11999999989E+02  0.12000000000E+02  0.51109989000E-03 0. -1.
     -623   -1    0    0    0    0  0.00000000000E+00  0.00000000000E+00  0.42561509872E-11  0.25126700000E+02  0.25126700000E+02 0.  1.
      622    2    1    2    0    0  0.69036040281E-01 -0.34336179730E-01  0.70798644946E+01  0.70811430456E+01  0.11027520935E+00 0.  0.
       11    1    1    2    0    0 -0.44185814370E-01  0.60903092206E-01  0.49182549907E+01  0.49188305508E+01  0.51109989000E-03 0. -1.
     -623    1    1    2    0    0 -0.24850225911E-01 -0.26566912476E-01  0.18805037894E-02  0.25126726404E+02  0.25126700000E+02 0.  1.
     -611    1    3    3    0    0  0.14786241454E-01 -0.24371844624E-01  0.57705891052E+01  0.57706681797E+01  0.10000000000E-01 0. -1.
      611    1    3    3    0    0  0.54249798827E-01 -0.99643351061E-02  0.13092753895E+01  0.13104748659E+01  0.10000000000E-01 0.  1.
</event>
<event>
 7   0  0.6206631E-02  0.9118800E+02  0.7818608E-02  0.1180000E+00
       11   -1    0    0    0    0  0.00000000000E+00  0.00000000000E+00  0.11999999989E+02  0.12000000000E+02  0.51109989000E-03 0.  1.
     -623   -1    0    0    0    0  0.00000000000E+00  0.00000000000E+00  0.42561509872E-11  0.25126700000E+02  0.25126700000E+02 0. -1.
      622    2    1    2    0    0 -0.96929608509E-02 -0.11660746096E-01  0.10942022010E+02  0.10942367953E+02  0.85678598087E-01 0.  0.
       11    1    1    2    0    0  0.21146180999E-01  0.46527452611E-02  0.10574066737E+01  0.10576284527E+01  0.51109989000E-03 0.  1.
     -623    1    1    2    0    0 -0.11453220148E-01  0.70080008350E-02  0.57130500112E-03  0.25126703594E+02  0.25126700000E+02 0. -1.
     -611    1    3    3    0    0 -0.24532444846E-01  0.26718827177E-01  0.73506131608E+01  0.73507094607E+01  0.10000000000E-01 0.  1.
      611    1    3    3    0    0  0.14839483995E-01 -0.38379573273E-01  0.35914088496E+01  0.35916584925E+01  0.10000000000E-01 0. -1.
</event>
<event>
 7   0  0.6206631E-02  0.9118800E+02  0.7818608E-02  0.1180000E+00
       11   -1    0    0    0    0  0.00000000000E+00  0.00000000000E+00  0.11999999989E+02  0.12000000000E+02  0.51109989000E-03 0.  1.
     -623   -1    0    0    0    0  0.00000000000E+00  0.00000000000E+00  0.42561509872E-11  0.25126700000E+02  0.25126700000E+02 0. -1.
      622    2    1    2    0    0  0.55048343727E-01  0.12490668465E+00  0.10771612081E+02  0.10773052355E+02  0.11134738783E+00 0.  0.
       11    1    1    2    0    0 -0.78511594226E-01 -0.97593951392E-01  0.12205102510E+01  0.12269206102E+01  0.51109989000E-03 0.  1.
     -623    1    1    2    0    0  0.23463250499E-01 -0.27312733255E-01  0.78776576249E-02  0.25126727034E+02  0.25126700000E+02 0. -1.
     -611    1    3    3    0    0  0.83220379459E-01  0.78122381978E-01  0.84484544764E+01  0.84492314312E+01  0.10000000000E-01 0.  1.
      611    1    3    3    0    0 -0.28172035732E-01  0.46784302669E-01  0.23231576041E+01  0.23238209242E+01  0.10000000000E-01 0. -1.
</event>
<event>
 7   0  0.6206631E-02  0.9118800E+02  0.7818608E-02  0.1180000E+00
       11   -1    0    0    0    0  0.00000000000E+00  0.00000000000E+00  0.11999999989E+02  0.12000000000E+02  0.51109989000E-03 0. -1.
     -623   -1    0    0    0    0  0.00000000000E+00  0.00000000000E+00  0.42561509872E-11  0.25126700000E+02  0.25126700000E+02 0. -1.
      622    2    1    2    0    0 -0.78374043102E-02 -0.10223239761E-01  0.11674627120E+02  0.11675089368E+02  0.10308945128E+00 0.  0.
       11    1    1    2    0    0  0.11383324555E-01  0.96034756682E-02  0.32456844380E+00  0.32491036111E+00  0.51109989000E-03 0. -1.
     -623    1    1    2    0    0 -0.35459202444E-02  0.61976409314E-03  0.80442578516E-03  0.25126700271E+02  0.25126700000E+02 0. -1.
     -611    1    3    3    0    0 -0.17753391090E-01  0.37019004704E-01  0.82416210219E+01  0.82417293487E+01  0.10000000000E-01 0. -1.
      611    1    3    3    0    0  0.99159867799E-02 -0.47242244466E-01  0.34330060977E+01  0.34333600194E+01  0.10000000000E-01 0.  1.
</event>
<event>
 7   0  0.6206631E-02  0.9118800E+02  0.7818608E-02  0.1180000E+00
       11   -1    0    0    0    0  0.00000000000E+00  0.00000000000E+00  0.11999999989E+02  0.12000000000E+02  0.51109989000E-03 0.  1.
     -623   -1    0    0    0    0  0.00000000000E+00  0.00000000000E+00  0.42561509872E-11  0.25126700000E+02  0.25126700000E+02 0.  1.
      622    2    1    2    0    0  0.80880245556E-02  0.89912100169E-02  0.11858902086E+02  0.11859038857E+02  0.55656677818E-01 0.  0.
       11    1    1    2    0    0  0.33271553408E-02  0.11917157223E-02  0.14091124720E+00  0.14095648605E+00  0.51109989000E-03 0.  1.
     -623    1    1    2    0    0 -0.11415179896E-01 -0.10182925739E-01  0.18665591616E-03  0.25126704657E+02  0.25126700000E+02 0.  1.
     -611    1    3    3    0    0  0.39804437377E-02 -0.41317709264E-03  0.11078510454E+02  0.11078515690E+02  0.10000000000E-01 0.  1.
      611    1    3    3    0    0  0.41075808179E-02  0.94043871096E-02  0.78039163234E+00  0.78052316721E+00  0.10000000000E-01 0. -1.
</event>
<event>
 7   0  0.6206631E-02  0.9118800E+02  0.7818608E-02  0.1180000E+00
       11   -1    0    0    0    0  0.00000000000E+00  0.00000000000E+00  0.11999999989E+02  0.12000000000E+02  0.51109989000E-03 0. -1.
     -623   -1    0    0    0    0  0.00000000000E+00  0.00000000000E+00  0.42561509872E-11  0.25126700000E+02  0.25126700000E+02 0. -1.
      622    2    1    2    0    0 -0.52589778190E-03 -0.12456892488E-01  0.10867003994E+02  0.10868464433E+02  0.17772973841E+00 0.  0.
       11    1    1    2    0    0  0.15288176167E-01 -0.33043065495E-02  0.11314180127E+01  0.11315262381E+01  0.51109989000E-03 0. -1.
     -623    1    1    2    0    0 -0.14762278385E-01  0.15761199038E-01  0.15779821247E-02  0.25126709329E+02  0.25126700000E+02 0. -1.
     -611    1    3    3    0    0 -0.60016556924E-01  0.37327803866E-01  0.23091868459E+01  0.23102898609E+01  0.10000000000E-01 0.  1.
      611    1    3    3    0    0  0.59490659142E-01 -0.49784696354E-01  0.85578171484E+01  0.85581745717E+01  0.10000000000E-01 0. -1.
</event>
<event>
 7   0  0.6206631E-02  0.9118800E+02  0.7818608E-02  0.1180000E+00
       11   -1    0    0    0    0  0.00000000000E+00  0.00000000000E+00  0.11999999989E+02  0.12000000000E+02  0.51109989000E-03 0. -1.
     -623   -1    0    0    0    0  0.00000000000E+00  0.00000000000E+00  0.42561509872E-11  0.25126700000E+02  0.25126700000E+02 0. -1.
      622    2    1    2    0    0  0.17475805214E-02 -0.27228732324E-03  0.11992737109E+02  0.11993265256E+02  0.11253897832E+00 0.  0.
       11    1    1    2    0    0 -0.10179774162E-02  0.25185088719E-03  0.66329172309E-02  0.67347250133E-02  0.51109989000E-03 0. -1.
     -623    1    1    2    0    0 -0.72960310511E-03  0.20436436048E-04  0.62996301033E-03  0.25126700018E+02  0.25126700000E+02 0. -1.
     -611    1    3    3    0    0 -0.38117333968E-01 -0.11468984094E-01  0.99471043581E+01  0.99471890291E+01  0.10000000000E-01 0. -1.
      611    1    3    3    0    0  0.39864914489E-01  0.11196696770E-01  0.20456327508E+01  0.20460762274E+01  0.10000000000E-01 0.  1.
</event>
<event>
 7   0  0.6206631E-02  0.9118800E+02  0.7818608E-02  0.1180000E+00
       11   -1    0    0    0    0  0.00000000000E+00  0.00000000000E+00  0.11999999989E+02  0.12000000000E+02  0.51109989000E-03 0.  1.
     -623   -1    0    0    0    0  0.00000000000E+00  0.00000000000E+00  0.42561509872E-11  0.25126700000E+02  0.25126700000E+02 0. -1.
      622    2    1    2    0    0  0.85640310796E-02  0.70602345479E-02  0.11822275091E+02  0.11823092225E+02  0.13855776006E+00 0.  0.
       11    1    1    2    0    0 -0.84226358328E-02 -0.44649977878E-02  0.17664984259E+00  0.17690761745E+00  0.51109989000E-03 0.  1.
     -623    1    1    2    0    0 -0.14139524681E-03 -0.25952367601E-02  0.10750557701E-02  0.25126700157E+02  0.25126700000E+02 0. -1.
     -611    1    3    3    0    0  0.37742264422E-01 -0.12747632822E-01  0.10914545509E+02  0.10914622790E+02  0.10000000000E-01 0.  1.
      611    1    3    3    0    0 -0.29178233343E-01  0.19807867369E-01  0.90772958165E+00  0.90846943499E+00  0.10000000000E-01 0. -1.
</event>
<event>
 7   0  0.6206631E-02  0.9118800E+02  0.7818608E-02  0.1180000E+00
       11   -1    0    0    0    0  0.00000000000E+00  0.00000000000E+00  0.11999999989E+02  0.12000000000E+02  0.51109989000E-03 0. -1.
     -623   -1    0    0    0    0  0.00000000000E+00  0.00000000000E+00  0.42561509872E-11  0.25126700000E+02  0.25126700000E+02 0. -1.
      622    2    1    2    0    0  0.15443455620E-02  0.25999273385E-02  0.11989344030E+02  0.11989945731E+02  0.12008010507E+00 0.  0.
       11    1    1    2    0    0 -0.19286844816E-02 -0.13083165284E-02  0.97670126829E-02  0.10054216818E-01  0.51109989000E-03 0. -1.
     -623    1    1    2    0    0  0.38433891961E-03 -0.12916108101E-02  0.88894668502E-03  0.25126700052E+02  0.25126700000E+02 0. -1.
     -611    1    3    3    0    0 -0.71942361849E-02 -0.53017954561E-01  0.36518123704E+01  0.36522179904E+01  0.10000000000E-01 0.  1.
      611    1    3    3    0    0  0.87385817469E-02  0.55617881900E-01  0.83375316594E+01  0.83377277410E+01  0.10000000000E-01 0. -1.
</event>
<event>
 7   0  0.6206631E-02  0.9118800E+02  0.7818608E-02  0.1180000E+00
       11   -1    0    0    0    0  0.00000000000E+00  0.00000000000E+00  0.11999999989E+02  0.12000000000E+02  0.51109989000E-03 0.  1.
     -623   -1    0    0    0    0  0.00000000000E+00  0.00000000000E+00  0.42561509872E-11  0.25126700000E+02  0.25126700000E+02 0. -1.
      622    2    1    2    0    0  0.76795165583E-02 -0.16387438085E-01  0.11702230342E+02  0.11702597721E+02  0.90944647116E-01 0.  0.
       11    1    1    2    0    0 -0.86967018182E-02  0.19871192883E-01  0.29660948316E+00  0.29740198999E+00  0.51109989000E-03 0.  1.
     -623    1    1    2    0    0  0.10171852598E-02 -0.34837547985E-02  0.11601642450E-02  0.25126700289E+02  0.25126700000E+02 0. -1.
     -611    1    3    3    0    0  0.31390909639E-01 -0.86579873569E-02  0.10546745339E+02  0.10546800349E+02  0.10000000000E-01 0.  1.
      611    1    3    3    0    0 -0.23711393080E-01 -0.77294507277E-02  0.11554850027E+01  0.11557973724E+01  0.10000000000E-01 0. -1.
</event>
<event>
 7   0  0.6206631E-02  0.9118800E+02  0.7818608E-02  0.1180000E+00
       11   -1    0    0    0    0  0.00000000000E+00  0.00000000000E+00  0.11999999989E+02  0.12000000000E+02  0.51109989000E-03 0. -1.
     -623   -1    0    0    0    0  0.00000000000E+00  0.00000000000E+00  0.42561509872E-11  0.25126700000E+02  0.25126700000E+02 0. -1.
      622    2    1    2    0    0 -0.32797953717E-02  0.40324581965E-02  0.11799431821E+02  0.11799723890E+02  0.82858665292E-01 0.  0.
       11    1    1    2    0    0  0.21947277344E-02 -0.38310794733E-02  0.20022675743E+00  0.20027608348E+00  0.51109989000E-03 0. -1.
     -623    1    1    2    0    0  0.10850676373E-02 -0.20137872322E-03  0.34141048636E-03  0.25126700027E+02  0.25126700000E+02 0. -1.
     -611    1    3    3    0    0  0.14624917294E-01 -0.34823623309E-01  0.56627732061E+01  0.56629079947E+01  0.10000000000E-01 0. -1.
      611    1    3    3    0    0 -0.17904712666E-01  0.38856081505E-01  0.61366586150E+01  0.61368158952E+01  0.10000000000E-01 0.  1.
</event>
<event>
 7   0  0.6206631E-02  0.9118800E+02  0.7818608E-02  0.1180000E+00
       11   -1    0    0    0    0  0.00000000000E+00  0.00000000000E+00  0.11999999989E+02  0.12000000000E+02  0.51109989000E-03 0.  1.
     -623   -1    0    0    0    0  0.00000000000E+00  0.00000000000E+00  0.42561509872E-11  0.25126700000E+02  0.25126700000E+02 0. -1.
      622    2    1    2    0    0 -0.57428399564E-02 -0.41255324897E-01  0.10281799263E+02  0.10282489083E+02  0.11158255499E+00 0.  0.
       11    1    1    2    0    0  0.30139621029E-02  0.38861334989E-01  0.17170682031E+01  0.17175106295E+01  0.51109989000E-03 0.  1.
     -623    1    1    2    0    0  0.27288778534E-02  0.23939899077E-02  0.11325229049E-02  0.25126700288E+02  0.25126700000E+02 0. -1.
     -611    1    3    3    0    0  0.49883969798E-01 -0.35308339891E-01  0.57509093584E+01  0.57512427820E+01  0.10000000000E-01 0.  1.
      611    1    3    3    0    0 -0.55626809754E-01 -0.59469850057E-02  0.45308899047E+01  0.45312463007E+01  0.10000000000E-01 0. -1.
</event>
<event>
 7   0  0.6206631E-02  0.9118800E+02  0.7818608E-02  0.1180000E+00
       11   -1    0    0    0    0  0.00000000000E+00  0.00000000000E+00  0.11999999989E+02  0.12000000000E+02  0.51109989000E-03 0.  1.
     -623   -1    0    0    0    0  0.00000000000E+00  0.00000000000E+00  0.42561509872E-11  0.25126700000E+02  0.25126700000E+02 0. -1.
      622    2    1    2    0    0 -0.18862501117E-01 -0.33558025981E-02  0.10583634638E+02  0.10584094911E+02  0.96829136803E-01 0.  0.
       11    1    1    2    0    0  0.10681447916E-01 -0.97146846571E-02  0.14158266409E+01  0.14159003520E+01  0.51109989000E-03 0.  1.
     -623    1    1    2    0    0  0.81810532007E-02  0.13070487255E-01  0.53871046781E-03  0.25126704737E+02  0.25126700000E+02 0. -1.
     -611    1    3    3    0    0  0.19552345085E-01 -0.37686086355E-01  0.36258237474E+01  0.36260860970E+01  0.10000000000E-01 0. -1.
      611    1    3    3    0    0 -0.38414846201E-01  0.34330283757E-01  0.69578108903E+01  0.69580088139E+01  0.10000000000E-01 0.  1.
</event>
<event>
 7   0  0.6206631E-02  0.9118800E+02  0.7818608E-02  0.1180000E+00
       11   -1    0    0    0    0  0.00000000000E+00  0.00000000000E+00  0.11999999989E+02  0.12000000000E+02  0.51109989000E-03 0.  1.
     -623   -1    0    0    0    0  0.00000000000E+00  0.00000000000E+00  0.42561509872E-11  0.25126700000E+02  0.25126700000E+02 0. -1.
      622    2    1    2    0    0 -0.20902311768E-03 -0.35344539789E-02  0.11994958376E+02  0.11995230082E+02  0.80658210887E-01 0.  0.
       11    1    1    2    0    0  0.95504650043E-03 -0.12357630430E-02  0.44774080837E-02  0.47694475989E-02  0.51109989000E-03 0.  1.
     -623    1    1    2    0    0 -0.74602338275E-03  0.47702170219E-02  0.56420505305E-03  0.25126700470E+02  0.25126700000E+02 0. -1.
     -611    1    3    3    0    0 -0.35905497324E-01  0.12553685317E-01  0.68568635834E+01  0.68569763746E+01  0.10000000000E-01 0. -1.
      611    1    3    3    0    0  0.35696474206E-01 -0.16088139296E-01  0.51380947925E+01  0.51382537076E+01  0.10000000000E-01 0.  1.
</event>
<event>
 7   0  0.6206631E-02  0.9118800E+02  0.7818608E-02  0.1180000E+00
       11   -1    0    0    0    0  0.00000000000E+00  0.00000000000E+00  0.11999999989E+02  0.12000000000E+02  0.51109989000E-03 0.  1.
     -623   -1    0    0    0    0  0.00000000000E+00  0.00000000000E+00  0.42561509872E-11  0.25126700000E+02  0.25126700000E+02 0. -1.
      622    2    1    2    0    0 -0.10494715972E-02 -0.20780406453E-02  0.11962960534E+02  0.11963110631E+02  0.59881564305E-01 0.  0.
       11    1    1    2    0    0 -0.18738605221E-02  0.20376905533E-02  0.36781628179E-01  0.36889198022E-01  0.51109989000E-03 0.  1.
     -623    1    1    2    0    0  0.29233321193E-02  0.40350092066E-04  0.25782695062E-03  0.25126700171E+02  0.25126700000E+02 0. -1.
     -611    1    3    3    0    0  0.13567335838E-01 -0.10033168238E-01  0.10533443561E+02  0.10533461824E+02  0.10000000000E-01 0.  1.
      611    1    3    3    0    0 -0.14616807435E-01  0.79551275925E-02  0.14295169726E+01  0.14296488066E+01  0.10000000000E-01 0. -1.
</event>
<event>
 7   0  0.6206631E-02  0.9118800E+02  0.7818608E-02  0.1180000E+00
       11   -1    0    0    0    0  0.00000000000E+00  0.00000000000E+00  0.11999999989E+02  0.12000000000E+02  0.51109989000E-03 0. -1.
     -623   -1    0    0    0    0  0.00000000000E+00  0.00000000000E+00  0.42561509872E-11  0.25126700000E+02  0.25126700000E+02 0.  1.
      622    2    1    2    0    0  0.14882009043E-01 -0.26665864399E-01  0.91651971283E+01  0.91654936387E+01  0.67102138578E-01 0.  0.
       11    1    1    2    0    0 -0.29677675294E-01  0.20091069250E-01  0.28342745161E+01  0.28345011394E+01  0.51109989000E-03 0. -1.
     -623    1    1    2    0    0  0.14795666251E-01  0.65747951487E-02  0.52834468937E-03  0.25126705222E+02  0.25126700000E+02 0.  1.
     -611    1    3    3    0    0  0.20783604177E-01 -0.45460493997E-01  0.58011662580E+01  0.58013902272E+01  0.10000000000E-01 0. -1.
      611    1    3    3    0    0 -0.59015951345E-02  0.18794629598E-01  0.33640308703E+01  0.33641034115E+01  0.10000000000E-01 0.  1.
</event>
<event>
 7   0  0.6206631E-02  0.9118800E+02  0.7818608E-02  0.1180000E+00
       11   -1    0    0    0    0  0.00000000000E+00  0.00000000000E+00  0.11999999989E+02  0.12000000000E+02  0.51109989000E-03 0.  1.
     -623   -1    0    0    0    0  0.00000000000E+00  0.00000000000E+00  0.42561509872E-11  0.25126700000E+02  0.25126700000E+02 0.  1.
      622    2    1    2    0    0  0.22508002863E-02 -0.16315451569E-01  0.11010337356E+02  0.11010955958E+02  0.11554722782E+00 0.  0.
       11    1    1    2    0    0 -0.23468948433E-02  0.17021914183E-01  0.98889461437E+00  0.98904401976E+00  0.51109989000E-03 0.  1.
     -623    1    1    2    0    0  0.96094556940E-04 -0.70646261352E-03  0.76801863162E-03  0.25126700022E+02  0.25126700000E+02 0.  1.
     -611    1    3    3    0    0 -0.30384542433E-01  0.27345565813E-01  0.79859460512E+01  0.79860569328E+01  0.10000000000E-01 0.  1.
      611    1    3    3    0    0  0.32635342719E-01 -0.43661017382E-01  0.30243913049E+01  0.30248990256E+01  0.10000000000E-01 0. -1.
</event>
<event>
 7   0  0.6206631E-02  0.9118800E+02  0.7818608E-02  0.1180000E+00
       11   -1    0    0    0    0  0.00000000000E+00  0.00000000000E+00  0.11999999989E+02  0.12000000000E+02  0.51109989000E-03 0. -1.
     -623   -1    0    0    0    0  0.00000000000E+00  0.00000000000E+00  0.42561509872E-11  0.25126700000E+02  0.25126700000E+02 0. -1.
      622    2    1    2    0    0 -0.22842416208E-02  0.20248935846E-02  0.11715211236E+02  0.11715329962E+02  0.52654392749E-01 0.  0.
       11    1    1    2    0    0  0.16252011506E-02 -0.23112244802E-02  0.28465554679E+00  0.28467002754E+00  0.51109989000E-03 0. -1.
     -623    1    1    2    0    0  0.65904047020E-03  0.28633089557E-03  0.13320600922E-03  0.25126700011E+02  0.25126700000E+02 0. -1.
     -611    1    3    3    0    0  0.18847287007E-01  0.12908264916E-01  0.41619078325E+01  0.41619825384E+01  0.10000000000E-01 0. -1.
      611    1    3    3    0    0 -0.21131528627E-01 -0.10883371331E-01  0.75533034040E+01  0.75533474236E+01  0.10000000000E-01 0. -1.
</event>
<event>
 7   0  0.6206631E-02  0.9118800E+02  0.7818608E-02  0.1180000E+00
       11   -1    0    0    0    0  0.00000000000E+00  0.00000000000E+00  0.11999999989E+02  0.12000000000E+02  0.51109989000E-03 0.  1.
     -623   -1    0    0    0    0  0.00000000000E+00  0.00000000000E+00  0.42561509872E-11  0.25126700000E+02  0.25126700000E+02 0. -1.
      622    2    1    2    0    0 -0.22055531690E-01  0.87779090987E-02  0.11844527565E+02  0.11845194241E+02  0.12340940459E+00 0.  0.
       11    1    1    2    0    0  0.33843455812E-01 -0.12748221843E-01  0.15051764213E+00  0.15480219145E+00  0.51109989000E-03 0.  1.
     -623    1    1    2    0    0 -0.11787924122E-01  0.39703127448E-02  0.49547821626E-02  0.25126703567E+02  0.25126700000E+02 0. -1.
     -611    1    3    3    0    0 -0.64287199144E-01  0.36048669195E-01  0.68730082477E+01  0.68734107052E+01  0.10000000000E-01 0.  1.
      611    1    3    3    0    0  0.42231667454E-01 -0.27270760097E-01  0.49715193172E+01  0.49717835360E+01  0.10000000000E-01 0. -1.
</event>
<event>
 7   0  0.6206631E-02  0.9118800E+02  0.7818608E-02  0.1180000E+00
       11   -1    0    0    0    0  0.00000000000E+00  0.00000000000E+00  0.11999999989E+02  0.12000000000E+02  0.51109989000E-03 0. -1.
     -623   -1    0    0    0    0  0.00000000000E+00  0.00000000000E+00  0.42561509872E-11  0.25126700000E+02  0.25126700000E+02 0.  1.
      622    2    1    2    0    0 -0.86771018302E-03  0.81750801298E-03  0.11996105455E+02  0.11996580855E+02  0.10679275468E+00 0.  0.
       11    1    1    2    0    0  0.73538223233E-03  0.37003271240E-03  0.32789289855E-02  0.34191094843E-02  0.51109989000E-03 0. -1.
     -623    1    1    2    0    0  0.13232795069E-03 -0.11875407254E-02  0.61560518034E-03  0.25126700036E+02  0.25126700000E+02 0.  1.
     -611    1    3    3    0    0 -0.51040518417E-01  0.87175468159E-03  0.75933634650E+01  0.75935416378E+01  0.10000000000E-01 0. -1.
      611    1    3    3    0    0  0.50172808234E-01 -0.54246668611E-04  0.44027419900E+01  0.44030392168E+01  0.10000000000E-01 0.  1.
</event>
<event>
 6   0  0.6206631E-02  0.9118800E+02  0.7818608E-02  0.1180000E+00
       11   -1    0    0    0    0  0.00000000000E+00  0.00000000000E+00  0.11999999989E+02  0.12000000000E+02  0.51109989000E-03 0.  1.
     -623   -1    0    0    0    0  0.00000000000E+00  0.00000000000E+00  0.42561509872E-11  0.25126700000E+02  0.25126700000E+02 0. -1.
       11    1    1    2    0    0  0.72035520785E-02 -0.69716826997E-01  0.10787111401E+00  0.12864200554E+00  0.51109989000E-03 0.  1.
     -623    1    1    2    0    0  0.13805923378E-01  0.44068930892E-01  0.24013424379E-01  0.25126753913E+02  0.25126700000E+02 0. -1.
     -611    1    1    2    0    0 -0.23354228091E-01  0.11839289525E+00  0.27000975636E+01  0.27028113420E+01  0.10000000000E-01 0. -1.
      611    1    1    2    0    0  0.23447526350E-02 -0.92744999144E-01  0.91680178872E+01  0.91684927394E+01  0.10000000000E-01 0.  1.
</event>
<event>
 7   0  0.6206631E-02  0.9118800E+02  0.7818608E-02  0.1180000E+00
       11   -1    0    0    0    0  0.00000000000E+00  0.00000000000E+00  0.11999999989E+02  0.12000000000E+02  0.51109989000E-03 0. -1.
     -623   -1    0    0    0    0  0.00000000000E+00  0.00000000000E+00  0.42561509872E-11  0.25126700000E+02  0.25126700000E+02 0. -1.
      622    2    1    2    0    0  0.22055245415E-01  0.45713693763E-01  0.80461117257E+01  0.80469214075E+01  0.10224510002E+00 0.  0.
       11    1    1    2    0    0 -0.12197682644E-01 -0.29920100714E-01  0.39529395934E+01  0.39530716773E+01  0.51109989000E-03 0. -1.
     -623    1    1    2    0    0 -0.98575627715E-02 -0.15793593049E-01  0.94866999992E-03  0.25126706915E+02  0.25126700000E+02 0. -1.
     -611    1    3    3    0    0 -0.19951217194E-01  0.24442304092E-01  0.84387015234E+00  0.84451898221E+00  0.10000000000E-01 0. -1.
      611    1    3    3    0    0  0.42006462609E-01  0.21271389671E-01  0.72022415734E+01  0.72024024253E+01  0.10000000000E-01 0.  1.
</event>
<event>
 7   0  0.6206631E-02  0.9118800E+02  0.7818608E-02  0.1180000E+00
       11   -1    0    0    0    0  0.00000000000E+00  0.00000000000E+00  0.11999999989E+02  0.12000000000E+02  0.51109989000E-03 0.  1.
     -623   -1    0    0    0    0  0.00000000000E+00  0.00000000000E+00  0.42561509872E-11  0.25126700000E+02  0.25126700000E+02 0.  1.
      622    2    1    2    0    0 -0.13483821034E-03  0.20946203741E-01  0.96227032326E+01  0.96229581172E+01  0.66833096138E-01 0.  0.
       11    1    1    2    0    0 -0.54964109865E-02 -0.21626274277E-01  0.23769364503E+01  0.23770412399E+01  0.51109989000E-03 0.  1.
     -623    1    1    2    0    0  0.56312491969E-02  0.68007053633E-03  0.36030623088E-03  0.25126700643E+02  0.25126700000E+02 0.  1.
     -611    1    3    3    0    0 -0.39959451649E-02 -0.20475444383E-01  0.19805601415E+01  0.19806952531E+01  0.10000000000E-01 0.  1.
      611    1    3    3    0    0  0.38611069545E-02  0.41421648124E-01  0.76421430910E+01  0.76422628641E+01  0.10000000000E-01 0. -1.
</event>
<event>
 7   0  0.6206631E-02  0.9118800E+02  0.7818608E-02  0.1180000E+00
       11   -1    0    0    0    0  0.00000000000E+00  0.00000000000E+00  0.11999999989E+02  0.12000000000E+02  0.51109989000E-03 0.  1.
     -623   -1    0    0    0    0  0.00000000000E+00  0.00000000000E+00  0.42561509872E-11  0.25126700000E+02  0.25126700000E+02 0.  1.
      622    2    1    2    0    0 -0.67135432480E-02 -0.32367357931E-02  0.11928325479E+02  0.11928614158E+02  0.82652569279E-01 0.  0.
       11    1    1    2    0    0  0.73949603368E-02  0.90481099927E-03  0.70994049599E-01  0.71385715818E-01  0.51109989000E-03 0.  1.
     -623    1    1    2    0    0 -0.68141708876E-03  0.23319247939E-02  0.68046091194E-03  0.25126700127E+02  0.25126700000E+02 0.  1.
     -611    1    3    3    0    0 -0.27858931100E-01 -0.15837000058E-01  0.22334227079E+01  0.22336749814E+01  0.10000000000E-01 0. -1.
      611    1    3    3    0    0  0.21145387852E-01  0.12600264265E-01  0.96949027708E+01  0.96949391761E+01  0.10000000000E-01 0.  1.
</event>
<event>
 7   0  0.6206631E-02  0.9118800E+02  0.7818608E-02  0.1180000E+00
       11   -1    0    0    0    0  0.00000000000E+00  0.00000000000E+00  0.11999999989E+02  0.12000000000E+02  0.51109989000E-03 0. -1.
     -623   -1    0    0    0    0  0.00000000000E+00  0.00000000000E+00  0.42561509872E-11  0.25126700000E+02  0.25126700000E+02 0.  1.
      622    2    1    2    0    0  0.13794209559E-01  0.63432815166E-02  0.11964499488E+02  0.11965011336E+02  0.10962553131E+00 0.  0.
       11    1    1    2    0    0  0.20331115274E-02 -0.70856584556E-02  0.34194346602E-01  0.34983634187E-01  0.51109989000E-03 0. -1.
     -623    1    1    2    0    0 -0.15827321086E-01  0.74237693892E-03  0.13061545342E-02  0.25126705030E+02  0.25126700000E+02 0.  1.
     -611    1    3    3    0    0 -0.30705904337E-01  0.41567413393E-01  0.52018100276E+01  0.52020763418E+01  0.10000000000E-01 0. -1.
      611    1    3    3    0    0  0.44500113896E-01 -0.35224131876E-01  0.67626894604E+01  0.67629349943E+01  0.10000000000E-01 0. -1.
</event>
<event>
 7   0  0.6206631E-02  0.9118800E+02  0.7818608E-02  0.1180000E+00
       11   -1    0    0    0    0  0.00000000000E+00  0.00000000000E+00  0.11999999989E+02  0.12000000000E+02  0.51109989000E-03 0.  1.
     -623   -1    0    0    0    0  0.00000000000E+00  0.00000000000E+00  0.42561509872E-11  0.25126700000E+02  0.25126700000E+02 0. -1.
      622    2    1    2    0    0 -0.38520330294E-03  0.20297588895E-01  0.11812317422E+02  0.11812765872E+02  0.10090843128E+00 0.  0.
       11    1    1    2    0    0  0.10250746990E-01 -0.16895071907E-01  0.18618541324E+00  0.18723191660E+00  0.51109989000E-03 0.  1.
     -623    1    1    2    0    0 -0.98655436876E-02 -0.34025169881E-02  0.14971535226E-02  0.25126702212E+02  0.25126700000E+02 0. -1.
     -611    1    3    3    0    0  0.18249889170E-01 -0.87476943899E-02  0.10289119946E+02  0.10289144709E+02  0.10000000000E-01 0.  1.
      611    1    3    3    0    0 -0.18635092473E-01  0.29045283285E-01  0.15231974762E+01  0.15236211624E+01  0.10000000000E-01 0. -1.
</event>
<event>
 7   0  0.6206631E-02  0.9118800E+02  0.7818608E-02  0.1180000E+00
       11   -1    0    0    0    0  0.00000000000E+00  0.00000000000E+00  0.11999999989E+02  0.12000000000E+02  0.51109989000E-03 0.  1.
     -623   -1    0    0    0    0  0.00000000000E+00  0.00000000000E+00  0.42561509872E-11  0.25126700000E+02  0.25126700000E+02 0.  1.
      622    2    1    2    0    0 -0.20577504863E-02 -0.28033619702E-02  0.11895425834E+02  0.11895797674E+02  0.93991639661E-01 0.  0.
       11    1    1    2    0    0  0.16858625443E-02 -0.69847018996E-03  0.10418484288E+00  0.10420207629E+00  0.51109989000E-03 0.  1.
     -623    1    1    2    0    0  0.37188794194E-03  0.35018321602E-02  0.38931201727E-03  0.25126700250E+02  0.25126700000E+02 0.  1.
     -611    1    3    3    0    0 -0.59422213670E-02 -0.43919888367E-01  0.40106932202E+01  0.40109505573E+01  0.10000000000E-01 0. -1.
      611    1    3    3    0    0  0.38844708807E-02  0.41116526397E-01  0.78847326140E+01  0.78848471166E+01  0.10000000000E-01 0.  1.
</event>
<event>
 7   0  0.6206631E-02  0.9118800E+02  0.7818608E-02  0.1180000E+00
       11   -1    0    0    0    0  0.00000000000E+00  0.00000000000E+00  0.11999999989E+02  0.12000000000E+02  0.51109989000E-03 0. -1.
     -623   -1    0    0    0    0  0.00000000000E+00  0.00000000000E+00  0.42561509872E-11  0.25126700000E+02  0.25126700000E+02 0. -1.
      622    2    1    2    0    0  0.42327763787E-02  0.31761952202E-02  0.11975103218E+02  0.11975536943E+02  0.10178399812E+00 0.  0.
       11    1    1    2    0    0 -0.53798708668E-02  0.58773009555E-02  0.23121637161E-01  0.24461336947E-01  0.51109989000E-03 0. -1.
     -623    1    1    2    0    0  0.11470944881E-02 -0.90534961756E-02  0.17751336544E-02  0.25126701720E+02  0.25126700000E+02 0. -1.
     -611    1    3    3    0    0  0.51621846813E-01  0.78591254419E-02  0.65134374901E+01  0.65136544672E+01  0.10000000000E-01 0.  1.
      611    1    3    3    0    0 -0.47389070434E-01 -0.46829302217E-02  0.54616657283E+01  0.54618824759E+01  0.10000000000E-01 0. -1.
</event>
<event>
 7   0  0.6206631E-02  0.9118800E+02  0.7818608E-02  0.1180000E+00
       11   -1    0    0    0    0  0.00000000000E+00  0.00000000000E+00  0.11999999989E+02  0.12000000000E+02  0.51109989000E-03 0.  1.
     -623   -1    0    0    0    0  0.00000000000E+00  0.00000000000E+00  0.42561509872E-11  0.25126700000E+02  0.25126700000E+02 0. -1.
      622    2    1    2    0    0  0.35430775470E-02 -0.26302957315E-01  0.11339858187E+02  0.11340393237E+02  0.10691426853E+00 0.  0.
       11    1    1    2    0    0 -0.75432122237E-02  0.27427198629E-01  0.65899255049E+00  0.65960639331E+00  0.51109989000E-03 0.  1.
     -623    1    1    2    0    0  0.40001346767E-02 -0.11242413140E-02  0.11492513987E-02  0.25126700370E+02  0.25126700000E+02 0. -1.
     -611    1    3    3    0    0 -0.42975252739E-01 -0.39026326095E-01  0.72292875630E+01  0.72295275500E+01  0.10000000000E-01 0.  1.
      611    1    3    3    0    0  0.46518330286E-01  0.12723368781E-01  0.41105706242E+01  0.41108656869E+01  0.10000000000E-01 0. -1.
</event>
<event>
 7   0  0.6206631E-02  0.9118800E+02  0.7818608E-02  0.1180000E+00
       11   -1    0    0    0    0  0.00000000000E+00  0.00000000000E+00  0.11999999989E+02  0.12000000000E+02  0.51109989000E-03 0. -1.
     -623   -1    0    0    0    0  0.00000000000E+00  0.00000000000E+00  0.42561509872E-11  0.25126700000E+02  0.25126700000E+02 0.  1.
      622    2    1    2    0    0  0.11525282411E-02 -0.16840195170E-02  0.11986059141E+02  0.11986476650E+02  0.10002295058E+00 0.  0.
       11    1    1    2    0    0  0.28237370149E-02 -0.38574207513E-02  0.12638854472E-01  0.13522390732E-01  0.51109989000E-03 0. -1.
     -623    1    1    2    0    0 -0.39762652560E-02  0.55414402683E-02  0.13019940126E-02  0.25126700959E+02  0.25126700000E+02 0.  1.
     -611    1    3    3    0    0  0.88273740622E-02  0.24033651364E-01  0.10915079118E+02  0.10915113728E+02  0.10000000000E-01 0. -1.
      611    1    3    3    0    0 -0.76748458211E-02 -0.25717670881E-01  0.10709800223E+01  0.10713629217E+01  0.10000000000E-01 0. -1.
</event>
<event>
 7   0  0.6206631E-02  0.9118800E+02  0.7818608E-02  0.1180000E+00
       11   -1    0    0    0    0  0.00000000000E+00  0.00000000000E+00  0.11999999989E+02  0.12000000000E+02  0.51109989000E-03 0.  1.
     -623   -1    0    0    0    0  0.00000000000E+00  0.00000000000E+00  0.42561509872E-11  0.25126700000E+02  0.25126700000E+02 0. -1.
      622    2    1    2    0    0 -0.49462298436E-01 -0.10345448462E-01  0.11030223458E+02  0.11030507216E+02  0.60879779853E-01 0.  0.
       11    1    1    2    0    0  0.42373276028E-01  0.30560757699E-01  0.96807475156E+00  0.96948359464E+00  0.51109989000E-03 0.  1.
     -623    1    1    2    0    0  0.70890224084E-02 -0.20215309237E-01  0.17017791669E-02  0.25126709190E+02  0.25126700000E+02 0. -1.
     -611    1    3    3    0    0 -0.54584126554E-01 -0.57859066175E-02  0.10487143972E+02  0.10487292386E+02  0.10000000000E-01 0.  1.
      611    1    3    3    0    0  0.51218281181E-02 -0.45595418443E-02  0.54307948629E+00  0.54321482948E+00  0.10000000000E-01 0.  1.
</event>
<event>
 7   0  0.6206631E-02  0.9118800E+02  0.7818608E-02  0.1180000E+00
       11   -1    0    0    0    0  0.00000000000E+00  0.00000000000E+00  0.11999999989E+02  0.12000000000E+02  0.51109989000E-03 0.  1.
     -623   -1    0    0    0    0  0.00000000000E+00  0.00000000000E+00  0.42561509872E-11  0.25126700000E+02  0.25126700000E+02 0. -1.
      622    2    1    2    0    0 -0.31975747993E-02  0.58899767332E-02  0.11725368514E+02  0.11725771729E+02  0.97010045485E-01 0.  0.
       11    1    1    2    0    0  0.12056324197E-02 -0.73727880459E-02  0.27412588657E+00  0.27422814309E+00  0.51109989000E-03 0.  1.
     -623    1    1    2    0    0  0.19919423796E-02  0.14828113127E-02  0.50558902375E-03  0.25126700128E+02  0.25126700000E+02 0. -1.
     -611    1    3    3    0    0 -0.31097965646E-01 -0.55862017370E-02  0.10281692978E+02  0.10281746388E+02  0.10000000000E-01 0.  1.
      611    1    3    3    0    0  0.27900390847E-01  0.11476178470E-01  0.14436755353E+01  0.14440253410E+01  0.10000000000E-01 0. -1.
</event>
<event>
 7   0  0.6206631E-02  0.9118800E+02  0.7818608E-02  0.1180000E+00
       11   -1    0    0    0    0  0.00000000000E+00  0.00000000000E+00  0.11999999989E+02  0.12000000000E+02  0.51109989000E-03 0. -1.
     -623   -1    0    0    0    0  0.00000000000E+00  0.00000000000E+00  0.42561509872E-11  0.25126700000E+02  0.25126700000E+02 0. -1.
      622    2    1    2    0    0 -0.27489792980E-01 -0.20510658899E-01  0.37707004276E+01  0.37725682625E+01  0.11363628162E+00 0.  0.
       11    1    1    2    0    0  0.10373069123E+00  0.26396072806E-01  0.82266189263E+01  0.82273152382E+01  0.51109989000E-03 0. -1.
     -623    1    1    2    0    0 -0.76240898252E-01 -0.58854139074E-02  0.26806351782E-02  0.25126816499E+02  0.25126700000E+02 0. -1.
     -611    1    3    3    0    0  0.15668879951E-02 -0.24714273588E-01  0.34992152269E+01  0.34993171412E+01  0.10000000000E-01 0. -1.
      611    1    3    3    0    0 -0.29056680975E-01  0.42036146896E-02  0.27148520075E+00  0.27325112133E+00  0.10000000000E-01 0.  1.
</event>
<event>
 6   0  0.6206631E-02  0.9118800E+02  0.7818608E-02  0.1180000E+00
       11   -1    0    0    0    0  0.00000000000E+00  0.00000000000E+00  0.11999999989E+02  0.12000000000E+02  0.51109989000E-03 0. -1.
     -623   -1    0    0    0    0  0.00000000000E+00  0.00000000000E+00  0.42561509872E-11  0.25126700000E+02  0.25126700000E+02 0. -1.
       11    1    1    2    0    0 -0.71305623027E-01 -0.13507235442E+00  0.20717714296E+01  0.20773940769E+01  0.51109989000E-03 0. -1.
     -623    1    1    2    0    0 -0.16073335204E-01  0.14351053454E+00  0.11242834641E-01  0.25127117481E+02  0.25126700000E+02 0. -1.
     -611    1    1    2    0    0  0.14026868803E+00 -0.12720048137E+00  0.54366812296E+01  0.54399869540E+01  0.10000000000E-01 0. -1.
      611    1    1    2    0    0 -0.52889729802E-01  0.11876230126E+00  0.44803044952E+01  0.44822014879E+01  0.10000000000E-01 0.  1.
</event>
<event>
 7   0  0.6206631E-02  0.9118800E+02  0.7818608E-02  0.1180000E+00
       11   -1    0    0    0    0  0.00000000000E+00  0.00000000000E+00  0.11999999989E+02  0.12000000000E+02  0.51109989000E-03 0.  1.
     -623   -1    0    0    0    0  0.00000000000E+00  0.00000000000E+00  0.42561509872E-11  0.25126700000E+02  0.25126700000E+02 0. -1.
      622    2    1    2    0    0 -0.35200518718E-01  0.18261367025E-01  0.11935370064E+02  0.11935827036E+02  0.96622445897E-01 0.  0.
       11    1    1    2    0    0  0.25388645843E-01 -0.60577387965E-02  0.58616636070E-01  0.64167365415E-01  0.51109989000E-03 0.  1.
     -623    1    1    2    0    0  0.98118728751E-02 -0.12203628229E-01  0.60132885738E-02  0.25126705599E+02  0.25126700000E+02 0. -1.
     -611    1    3    3    0    0 -0.52626599296E-01  0.30586161612E-02  0.10960864541E+02  0.10960995867E+02  0.10000000000E-01 0.  1.
      611    1    3    3    0    0  0.17426080578E-01  0.15202750864E-01  0.97450552329E+00  0.97483116838E+00  0.10000000000E-01 0. -1.
</event>
<event>
 7   0  0.6206631E-02  0.9118800E+02  0.7818608E-02  0.1180000E+00
       11   -1    0    0    0    0  0.00000000000E+00  0.00000000000E+00  0.11999999989E+02  0.12000000000E+02  0.51109989000E-03 0.  1.
     -623   -1    0    0    0    0  0.00000000000E+00  0.00000000000E+00  0.42561509872E-11  0.25126700000E+02  0.25126700000E+02 0.  1.
      622    2    1    2    0    0  0.93414130871E-02 -0.10590178434E-01  0.11890492974E+02  0.11890636906E+02  0.56775539148E-01 0.  0.
       11    1    1    2    0    0 -0.72114909427E-02  0.10500172598E-01  0.10861741411E+00  0.10936298779E+00  0.51109989000E-03 0.  1.
     -623    1    1    2    0    0 -0.21299221444E-02  0.90005836090E-04  0.88960140437E-03  0.25126700106E+02  0.25126700000E+02 0.  1.
     -611    1    3    3    0    0  0.14505411894E-01 -0.49707427977E-02  0.12273500450E+01  0.12274865573E+01  0.10000000000E-01 0. -1.
      611    1    3    3    0    0 -0.51639988071E-02 -0.56194356368E-02  0.10663142929E+02  0.10663150349E+02  0.10000000000E-01 0.  1.
</event>
<event>
 7   0  0.6206631E-02  0.9118800E+02  0.7818608E-02  0.1180000E+00
       11   -1    0    0    0    0  0.00000000000E+00  0.00000000000E+00  0.11999999989E+02  0.12000000000E+02  0.51109989000E-03 0.  1.
     -623   -1    0    0    0    0  0.00000000000E+00  0.00000000000E+00  0.42561509872E-11  0.25126700000E+02  0.25126700000E+02 0.  1.
      622    2    1    2    0    0  0.23026554778E-02 -0.83167017874E-02  0.11990911863E+02  0.11991483220E+02  0.11673925977E+00 0.  0.
       11    1    1    2    0    0 -0.69588152027E-02  0.34622780523E-02  0.34403040286E-02  0.85152447560E-02  0.51109989000E-03 0.  1.
     -623    1    1    2    0    0  0.46561597249E-02  0.48544237351E-02  0.56478225649E-02  0.25126701535E+02  0.25126700000E+02 0.  1.
     -611    1    3    3    0    0 -0.13464303431E-01  0.51046659159E-01  0.47477496904E+01  0.47480537246E+01  0.10000000000E-01 0. -1.
      611    1    3    3    0    0  0.15766958908E-01 -0.59363360947E-01  0.72431621721E+01  0.72434294955E+01  0.10000000000E-01 0.  1.
</event>
<event>
 7   0  0.6206631E-02  0.9118800E+02  0.7818608E-02  0.1180000E+00
       11   -1    0    0    0    0  0.00000000000E+00  0.00000000000E+00  0.11999999989E+02  0.12000000000E+02  0.51109989000E-03 0.  1.
     -623   -1    0    0    0    0  0.00000000000E+00  0.00000000000E+00  0.42561509872E-11  0.25126700000E+02  0.25126700000E+02 0.  1.
      622    2    1    2    0    0  0.44274037689E-02 -0.52265190707E-02  0.11590469776E+02  0.11590840941E+02  0.92504958950E-01 0.  0.
       11    1    1    2    0    0 -0.98089886740E-02 -0.47922429789E-02  0.40901049108E+00  0.40915647971E+00  0.51109989000E-03 0.  1.
     -623    1    1    2    0    0  0.53815849051E-02  0.10018762050E-01  0.51972159061E-03  0.25126702579E+02  0.25126700000E+02 0.  1.
     -611    1    3    3    0    0  0.37388113686E-01  0.14289567885E-01  0.30451174428E+01  0.30453969041E+01  0.10000000000E-01 0. -1.
      611    1    3    3    0    0 -0.32960709918E-01 -0.19516086956E-01  0.85453523336E+01  0.85454440371E+01  0.10000000000E-01 0.  1.
</event>
<event>
 7   0  0.6206631E-02  0.9118800E+02  0.7818608E-02  0.1180000E+00
       11   -1    0    0    0    0  0.00000000000E+00  0.00000000000E+00  0.11999999989E+02  0.12000000000E+02  0.51109989000E-03 0.  1.
     -623   -1    0    0    0    0  0.00000000000E+00  0.00000000000E+00  0.42561509872E-11  0.25126700000E+02  0.25126700000E+02 0.  1.
      622    2    1    2    0    0 -0.47405328184E-03  0.12048536988E-01  0.11956026040E+02  0.11956286517E+02  0.77995022308E-01 0.  0.
       11    1    1    2    0    0  0.39705350497E-02  0.10620569567E-01  0.42203377446E-01  0.43702951130E-01  0.51109989000E-03 0.  1.
     -623    1    1    2    0    0 -0.34964817678E-02 -0.22669106555E-01  0.17705717379E-02  0.25126710532E+02  0.25126700000E+02 0.  1.
     -611    1    3    3    0    0 -0.80476358374E-02 -0.23314240209E-01  0.87568907712E+01  0.87569312146E+01  0.10000000000E-01 0.  1.
      611    1    3    3    0    0  0.75735825555E-02  0.35362777197E-01  0.31991352687E+01  0.31993553027E+01  0.10000000000E-01 0. -1.
</event>
<event>
 6   0  0.6206631E-02  0.9118800E+02  0.7818608E-02  0.1180000E+00
       11   -1    0    0    0    0  0.00000000000E+00  0.00000000000E+00  0.11999999989E+02  0.12000000000E+02  0.51109989000E-03 0. -1.
     -623   -1    0    0    0    0  0.00000000000E+00  0.00000000000E+00  0.42561509872E-11  0.25126700000E+02  0.25126700000E+02 0. -1.
       11    1    1    2    0    0 -0.32956943833E-01 -0.27949175937E-01  0.33147309092E+01  0.33150126060E+01  0.51109989000E-03 0. -1.
     -623    1    1    2    0    0  0.11410016754E-02 -0.12239164632E-02  0.26944670545E-02  0.25126700200E+02  0.25126700000E+02 0. -1.
     -611    1    1    2    0    0 -0.65008608271E-01 -0.39228809095E-01  0.47380276144E+01  0.47386465044E+01  0.10000000000E-01 0. -1.
      611    1    1    2    0    0  0.96824550429E-01  0.68401901495E-01  0.39445469985E+01  0.39463406894E+01  0.10000000000E-01 0.  1.
</event>
<event>
 7   0  0.6206631E-02  0.9118800E+02  0.7818608E-02  0.1180000E+00
       11   -1    0    0    0    0  0.00000000000E+00  0.00000000000E+00  0.11999999989E+02  0.12000000000E+02  0.51109989000E-03 0. -1.
     -623   -1    0    0    0    0  0.00000000000E+00  0.00000000000E+00  0.42561509872E-11  0.25126700000E+02  0.25126700000E+02 0. -1.
      622    2    1    2    0    0  0.21205120762E-02 -0.21867638999E-01  0.89931253136E+01  0.89936648017E+01  0.96025870194E-01 0.  0.
       11    1    1    2    0    0 -0.42354162764E-03  0.24348345351E-01  0.30062363368E+01  0.30063350105E+01  0.51109989000E-03 0. -1.
     -623    1    1    2    0    0 -0.16969704486E-02 -0.24807063514E-02  0.63833869744E-03  0.25126700188E+02  0.25126700000E+02 0. -1.
     -611    1    3    3    0    0  0.46678204837E-01 -0.14682054284E-01  0.56347904093E+01  0.56350117457E+01  0.10000000000E-01 0. -1.
      611    1    3    3    0    0 -0.44557692761E-01 -0.71855847152E-02  0.33583349043E+01  0.33586530559E+01  0.10000000000E-01 0.  1.
</event>
<event>
 7   0  0.6206631E-02  0.9118800E+02  0.7818608E-02  0.1180000E+00
       11   -1    0    0    0    0  0.00000000000E+00  0.00000000000E+00  0.11999999989E+02  0.12000000000E+02  0.51109989000E-03 0.  1.
     -623   -1    0    0    0    0  0.00000000000E+00  0.00000000000E+00  0.42561509872E-11  0.25126700000E+02  0.25126700000E+02 0.  1.
      622    2    1    2    0    0  0.40069423762E-02  0.68488978788E-02  0.11984084471E+02  0.11984466406E+02  0.95349172915E-01 0.  0.
       11    1    1    2    0    0 -0.15261051079E-02 -0.50694591768E-02  0.14594384357E-01  0.15533373460E-01  0.51109989000E-03 0.  1.
     -623    1    1    2    0    0 -0.24808372683E-02 -0.17794387021E-02  0.13211334040E-02  0.25126700220E+02  0.25126700000E+02 0.  1.
     -611    1    3    3    0    0 -0.44159098910E-01 -0.23527623552E-02  0.52291845976E+01  0.52293811409E+01  0.10000000000E-01 0. -1.
      611    1    3    3    0    0  0.48166041287E-01  0.92016602340E-02  0.67548998738E+01  0.67550852654E+01  0.10000000000E-01 0.  1.
</event>
<event>
 7   0  0.6206631E-02  0.9118800E+02  0.7818608E-02  0.1180000E+00
       11   -1    0    0    0    0  0.00000000000E+00  0.00000000000E+00  0.11999999989E+02  0.12000000000E+02  0.51109989000E-03 0.  1.
     -623   -1    0    0    0    0  0.00000000000E+00  0.00000000000E+00  0.42561509872E-11  0.25126700000E+02  0.25126700000E+02 0.  1.
      622    2    1    2    0    0 -0.92302589170E-01 -0.91852738177E-02  0.84035738180E+01  0.84048964371E+01  0.11673502828E+00 0.  0.
       11    1    1    2    0    0  0.11581690309E+00  0.46686655948E-01  0.35928949406E+01  0.35950643268E+01  0.51109989000E-03 0.  1.
     -623    1    1    2    0    0 -0.23514313925E-01 -0.37501382130E-01  0.35312305451E-02  0.25126739236E+02  0.25126700000E+02 0.  1.
     -611    1    3    3    0    0 -0.47601300565E-01  0.52949487672E-01  0.40098139691E+01  0.40104585272E+01  0.10000000000E-01 0. -1.
      611    1    3    3    0    0 -0.44701288605E-01 -0.62134761490E-01  0.43937598490E+01  0.43944379099E+01  0.10000000000E-01 0.  1.
</event>
<event>
 7   0  0.6206631E-02  0.9118800E+02  0.7818608E-02  0.1180000E+00
       11   -1    0    0    0    0  0.00000000000E+00  0.00000000000E+00  0.11999999989E+02  0.12000000000E+02  0.51109989000E-03 0.  1.
     -623   -1    0    0    0    0  0.00000000000E+00  0.00000000000E+00  0.42561509872E-11  0.25126700000E+02  0.25126700000E+02 0. -1.
      622    2    1    2    0    0  0.34894263255E-02 -0.13720280451E-01  0.11657155566E+02  0.11657367434E+02  0.68841792380E-01 0.  0.
       11    1    1    2    0    0 -0.28891921197E-02  0.14976450500E-01  0.34229247969E+00  0.34263252090E+00  0.51109989000E-03 0.  1.
     -623    1    1    2    0    0 -0.60023420580E-03 -0.12561700489E-02  0.55194352500E-03  0.25126700045E+02  0.25126700000E+02 0. -1.
     -611    1    3    3    0    0  0.11073770206E-01  0.21477513347E-01  0.74504706208E+01  0.74505165179E+01  0.10000000000E-01 0.  1.
      611    1    3    3    0    0 -0.75843438803E-02 -0.35197793798E-01  0.42066849451E+01  0.42068509166E+01  0.10000000000E-01 0. -1.
</event>
<event>
 7   0  0.6206631E-02  0.9118800E+02  0.7818608E-02  0.1180000E+00
       11   -1    0    0    0    0  0.00000000000E+00  0.00000000000E+00  0.11999999989E+02  0.12000000000E+02  0.51109989000E-03 0. -1.
     -623   -1    0    0    0    0  0.00000000000E+00  0.00000000000E+00  0.42561509872E-11  0.25126700000E+02  0.25126700000E+02 0. -1.
      622    2    1    2    0    0  0.29108190589E-02 -0.28213813590E-02  0.11937093446E+02  0.11937439538E+02  0.90809448704E-01 0.  0.
       11    1    1    2    0    0 -0.10611627086E-02  0.36731928165E-02  0.62441339816E-01  0.62560375262E-01  0.51109989000E-03 0. -1.
     -623    1    1    2    0    0 -0.18496563503E-02 -0.85181145744E-03  0.46520356466E-03  0.25126700087E+02  0.25126700000E+02 0. -1.
     -611    1    3    3    0    0 -0.32575531384E-01  0.22008771861E-01  0.36193087121E+01  0.36195360344E+01  0.10000000000E-01 0.  1.
      611    1    3    3    0    0  0.35486350443E-01 -0.24830153220E-01  0.83177847337E+01  0.83179035035E+01  0.10000000000E-01 0. -1.
</event>
<event>
 7   0  0.6206631E-02  0.9118800E+02  0.7818608E-02  0.1180000E+00
       11   -1    0    0    0    0  0.00000000000E+00  0.00000000000E+00  0.11999999989E+02  0.12000000000E+02  0.51109989000E-03 0.  1.
     -623   -1    0    0    0    0  0.00000000000E+00  0.00000000000E+00  0.42561509872E-11  0.25126700000E+02  0.25126700000E+02 0.  1.
      622    2    1    2    0    0  0.25086899221E-01 -0.37066567686E-02  0.11594382621E+02  0.11594920984E+02  0.10881719023E+00 0.  0.
       11    1    1    2    0    0 -0.30222542065E-01  0.19380985845E-01  0.40347895045E+00  0.40507351104E+00  0.51109989000E-03 0.  1.
     -623    1    1    2    0    0  0.51356428432E-02 -0.15674329077E-01  0.21384178653E-02  0.25126705505E+02  0.25126700000E+02 0.  1.
     -611    1    3    3    0    0 -0.12780424583E-01  0.41631900038E-01  0.30376399094E+01  0.30379685274E+01  0.10000000000E-01 0. -1.
      611    1    3    3    0    0  0.37867323804E-01 -0.45338556807E-01  0.85567427114E+01  0.85569524568E+01  0.10000000000E-01 0.  1.
</event>
<event>
 7   0  0.6206631E-02  0.9118800E+02  0.7818608E-02  0.1180000E+00
       11   -1    0    0    0    0  0.00000000000E+00  0.00000000000E+00  0.11999999989E+02  0.12000000000E+02  0.51109989000E-03 0. -1.
     -623   -1    0    0    0    0  0.00000000000E+00  0.00000000000E+00  0.42561509872E-11  0.25126700000E+02  0.25126700000E+02 0.  1.
      622    2    1    2    0    0 -0.97397586640E-02  0.67230465641E-02  0.35610167333E+01  0.35626712339E+01  0.10791702440E+00 0.  0.
       11    1    1    2    0    0  0.14601266259E-01 -0.14013025358E-01  0.84373028957E+01  0.84373271821E+01  0.51109989000E-03 0. -1.
     -623    1    1    2    0    0 -0.48615075952E-02  0.72899787939E-02  0.16803601251E-02  0.25126701584E+02  0.25126700000E+02 0.  1.
     -611    1    3    3    0    0 -0.25274320732E-02 -0.31143085705E-02  0.35036893177E-01  0.36656114282E-01  0.10000000000E-01 0. -1.
      611    1    3    3    0    0 -0.72123265908E-02  0.98373551346E-02  0.35259798401E+01  0.35260151197E+01  0.10000000000E-01 0. -1.
</event>
<event>
 7   0  0.6206631E-02  0.9118800E+02  0.7818608E-02  0.1180000E+00
       11   -1    0    0    0    0  0.00000000000E+00  0.00000000000E+00  0.11999999989E+02  0.12000000000E+02  0.51109989000E-03 0.  1.
     -623   -1    0    0    0    0  0.00000000000E+00  0.00000000000E+00  0.42561509872E-11  0.25126700000E+02  0.25126700000E+02 0.  1.
      622    2    1    2    0    0 -0.10759462925E-02  0.17049191888E-02  0.11978338966E+02  0.11978680804E+02  0.90472996007E-01 0.  0.
       11    1    1    2    0    0  0.44012939298E-02  0.18421515814E-02  0.20771645004E-01  0.21318709390E-01  0.51109989000E-03 0.  1.
     -623    1    1    2    0    0 -0.33253476372E-02 -0.35470707702E-02  0.88937797569E-03  0.25126700486E+02  0.25126700000E+02 0.  1.
     -611    1    3    3    0    0  0.13733638999E-01 -0.34583174451E-01  0.88014799719E+01  0.88015643101E+01  0.10000000000E-01 0. -1.
      611    1    3    3    0    0 -0.14809585292E-01  0.36288093640E-01  0.31768589943E+01  0.31771164944E+01  0.10000000000E-01 0.  1.
</event>
<event>
 7   0  0.6206631E-02  0.9118800E+02  0.7818608E-02  0.1180000E+00
       11   -1    0    0    0    0  0.00000000000E+00  0.00000000000E+00  0.11999999989E+02  0.12000000000E+02  0.51109989000E-03 0. -1.
     -623   -1    0    0    0    0  0.00000000000E+00  0.00000000000E+00  0.42561509872E-11  0.25126700000E+02  0.25126700000E+02 0.  1.
      622    2    1    2    0    0 -0.29470290234E-02 -0.54033758413E-03  0.11964282424E+02  0.11964957351E+02  0.12704927804E+00 0.  0.
       11    1    1    2    0    0  0.33671249041E-02 -0.57506358329E-02  0.34398558017E-01  0.35041823003E-01  0.51109989000E-03 0. -1.
     -623    1    1    2    0    0 -0.42009588067E-03  0.62909734170E-02  0.13190070239E-02  0.25126700826E+02  0.25126700000E+02 0.  1.
     -611    1    3    3    0    0 -0.38760870073E-01 -0.33575052518E-01  0.25080871357E+01  0.25086312542E+01  0.10000000000E-01 0.  1.
      611    1    3    3    0    0  0.35813841050E-01  0.33034714934E-01  0.94561952884E+01  0.94563260972E+01  0.10000000000E-01 0. -1.
</event>
<event>
 7   0  0.6206631E-02  0.9118800E+02  0.7818608E-02  0.1180000E+00
       11   -1    0    0    0    0  0.00000000000E+00  0.00000000000E+00  0.11999999989E+02  0.12000000000E+02  0.51109989000E-03 0.  1.
     -623   -1    0    0    0    0  0.00000000000E+00  0.00000000000E+00  0.42561509872E-11  0.25126700000E+02  0.25126700000E+02 0.  1.
      622    2    1    2    0    0 -0.41533978288E-02  0.97398978443E-02  0.10076459878E+02  0.10076888529E+02  0.92339703446E-01 0.  0.
       11    1    1    2    0    0  0.42718440440E-02 -0.10487561862E-01  0.19230780462E+01  0.19231114556E+01  0.51109989000E-03 0.  1.
     -623    1    1    2    0    0 -0.11844621517E-03  0.74766401808E-03  0.46206437342E-03  0.25126700016E+02  0.25126700000E+02 0.  1.
     -611    1    3    3    0    0  0.13681180390E-01 -0.18465707776E-02  0.94083355553E+01  0.94083509982E+01  0.10000000000E-01 0.  1.
      611    1    3    3    0    0 -0.17834578219E-01  0.11586468622E-01  0.66812432321E+00  0.66853753051E+00  0.10000000000E-01 0. -1.
</event>
<event>
 7   0  0.6206631E-02  0.9118800E+02  0.7818608E-02  0.1180000E+00
       11   -1    0    0    0    0  0.00000000000E+00  0.00000000000E+00  0.11999999989E+02  0.12000000000E+02  0.51109989000E-03 0. -1.
     -623   -1    0    0    0    0  0.00000000000E+00  0.00000000000E+00  0.42561509872E-11  0.25126700000E+02  0.25126700000E+02 0. -1.
      622    2    1    2    0    0 -0.53531781845E-02  0.56633820979E-01  0.99187227244E+01  0.99194564235E+01  0.10639176500E+00 0.  0.
       11    1    1    2    0    0  0.23447571165E-01 -0.41754557953E-01  0.20799813701E+01  0.20805326224E+01  0.51109989000E-03 0. -1.
     -623    1    1    2    0    0 -0.18094392980E-01 -0.14879263026E-01  0.12958945676E-02  0.25126710954E+02  0.25126700000E+02 0. -1.
     -611    1    3    3    0    0 -0.46111235172E-01  0.61494459148E-01  0.69725459887E+01  0.69729767947E+01  0.10000000000E-01 0. -1.
      611    1    3    3    0    0  0.40758056987E-01 -0.48606381693E-02  0.29461767357E+01  0.29464796288E+01  0.10000000000E-01 0.  1.
</event>
<event>
 7   0  0.6206631E-02  0.9118800E+02  0.7818608E-02  0.1180000E+00
       11   -1    0    0    0    0  0.00000000000E+00  0.00000000000E+00  0.11999999989E+02  0.12000000000E+02  0.51109989000E-03 0.  1.
     -623   -1    0    0    0    0  0.00000000000E+00  0.00000000000E+00  0.42561509872E-11  0.25126700000E+02  0.25126700000E+02 0. -1.
      622    2    1    2    0    0  0.39941434968E-01 -0.13881250665E-01  0.60621990237E+01  0.60633841398E+01  0.11217047895E+00 0.  0.
       11    1    1    2    0    0 -0.52016777981E-01  0.57648528138E-02  0.59363808958E+01  0.59366116076E+01  0.51109989000E-03 0.  1.
     -623    1    1    2    0    0  0.12075343014E-01  0.81163978507E-02  0.14200696245E-02  0.25126704253E+02  0.25126700000E+02 0. -1.
     -611    1    3    3    0    0  0.74402645724E-01  0.12240146494E-02  0.30076183112E+01  0.30085553273E+01  0.10000000000E-01 0. -1.
      611    1    3    3    0    0 -0.34461210756E-01 -0.15105265314E-01  0.30545807126E+01  0.30548288125E+01  0.10000000000E-01 0.  1.
</event>
<event>
 7   0  0.6206631E-02  0.9118800E+02  0.7818608E-02  0.1180000E+00
       11   -1    0    0    0    0  0.00000000000E+00  0.00000000000E+00  0.11999999989E+02  0.12000000000E+02  0.51109989000E-03 0.  1.
     -623   -1    0    0    0    0  0.00000000000E+00  0.00000000000E+00  0.42561509872E-11  0.25126700000E+02  0.25126700000E+02 0. -1.
      622    2    1    2    0    0 -0.42796731778E-03 -0.27930627191E-02  0.11989455406E+02  0.11989916884E+02  0.10515679694E+00 0.  0.
       11    1    1    2    0    0  0.99214329558E-03  0.42321489578E-03  0.10012095386E-01  0.10082992428E-01  0.51109989000E-03 0.  1.
     -623    1    1    2    0    0 -0.56417597780E-03  0.23698478233E-02  0.53248720834E-03  0.25126700124E+02  0.25126700000E+02 0. -1.
     -611    1    3    3    0    0 -0.44756735562E-01  0.11713620196E-02  0.30488918312E+01  0.30492369432E+01  0.10000000000E-01 0. -1.
      611    1    3    3    0    0  0.44328768245E-01 -0.39644247387E-02  0.89405635753E+01  0.89406799406E+01  0.10000000000E-01 0.  1.
</event>
<event>
 7   0  0.6206631E-02  0.9118800E+02  0.7818608E-02  0.1180000E+00
       11   -1    0    0    0    0  0.00000000000E+00  0.00000000000E+00  0.11999999989E+02  0.12000000000E+02  0.51109989000E-03 0. -1.
     -623   -1    0    0    0    0  0.00000000000E+00  0.00000000000E+00  0.42561509872E-11  0.25126700000E+02  0.25126700000E+02 0. -1.
      622    2    1    2    0    0  0.38583253958E-03 -0.31809166389E-03  0.11991949791E+02  0.11992095689E+02  0.59152108096E-01 0.  0.
       11    1    1    2    0    0 -0.12849447008E-02 -0.63240266621E-02  0.45337058656E-02  0.79031707632E-02  0.51109989000E-03 0. -1.
     -623    1    1    2    0    0  0.89911216117E-03  0.66421183260E-02  0.35164919799E-02  0.25126701140E+02  0.25126700000E+02 0. -1.
     -611    1    3    3    0    0 -0.53208630551E-02  0.62225999172E-02  0.11359205750E+02  0.11359213102E+02  0.10000000000E-01 0. -1.
      611    1    3    3    0    0  0.57066955947E-02 -0.65406915810E-02  0.63274404130E+00  0.63288258692E+00  0.10000000000E-01 0. -1.
</event>
<event>
 7   0  0.6206631E-02  0.9118800E+02  0.7818608E-02  0.1180000E+00
       11   -1    0    0    0    0  0.00000000000E+00  0.00000000000E+00  0.11999999989E+02  0.12000000000E+02  0.51109989000E-03 0.  1.
     -623   -1    0    0    0    0  0.00000000000E+00  0.00000000000E+00  0.42561509872E-11  0.25126700000E+02  0.25126700000E+02 0. -1.
      622    2    1    2    0    0 -0.52451371233E-04  0.11991674091E-02  0.11993307373E+02  0.11993744767E+02  0.10242252344E+00 0.  0.
       11    1    1    2    0    0 -0.28853968865E-02 -0.32585323861E-02  0.44630394908E-02  0.62548775486E-02  0.51109989000E-03 0.  1.
     -623    1    1    2    0    0  0.29378482578E-02  0.20593649771E-02  0.22295771286E-02  0.25126700355E+02  0.25126700000E+02 0. -1.
     -611    1    3    3    0    0  0.39423924062E-01 -0.11675613740E-01  0.26333954066E+01  0.26337353575E+01  0.10000000000E-01 0. -1.
      611    1    3    3    0    0 -0.39476375433E-01  0.12874781149E-01  0.93599119659E+01  0.93600094099E+01  0.10000000000E-01 0.  1.
</event>
<event>
 7   0  0.6206631E-02  0.9118800E+02  0.7818608E-02  0.1180000E+00
       11   -1    0    0    0    0  0.00000000000E+00  0.00000000000E+00  0.11999999989E+02  0.12000000000E+02  0.51109989000E-03 0. -1.
     -623   -1    0    0    0    0  0.00000000000E+00  0.00000000000E+00  0.42561509872E-11  0.25126700000E+02  0.25126700000E+02 0.  1.
      622    2    1    2    0    0 -0.12639147380E-01 -0.67646677646E-02  0.11830945709E+02  0.11831453898E+02  0.10871738349E+00 0.  0.
       11    1    1    2    0    0  0.76623233391E-02  0.11720150024E-01  0.16796164814E+00  0.16854509659E+00  0.51109989000E-03 0. -1.
     -623    1    1    2    0    0  0.49768240410E-02 -0.49554822598E-02  0.10926321620E-02  0.25126701005E+02  0.25126700000E+02 0.  1.
     -611    1    3    3    0    0 -0.58833307328E-01 -0.21436147604E-02  0.53236684134E+01  0.53240033179E+01  0.10000000000E-01 0. -1.
      611    1    3    3    0    0  0.46194159948E-01 -0.46210530042E-02  0.65072772954E+01  0.65074505802E+01  0.10000000000E-01 0.  1.
</event>
<event>
 7   0  0.6206631E-02  0.9118800E+02  0.7818608E-02  0.1180000E+00
       11   -1    0    0    0    0  0.00000000000E+00  0.00000000000E+00  0.11999999989E+02  0.12000000000E+02  0.51109989000E-03 0. -1.
     -623   -1    0    0    0    0  0.00000000000E+00  0.00000000000E+00  0.42561509872E-11  0.25126700000E+02  0.25126700000E+02 0. -1.
      622    2    1    2    0    0  0.13387413014E-01 -0.66149819912E-02  0.11806944724E+02  0.11807343393E+02  0.95871335534E-01 0.  0.
       11    1    1    2    0    0 -0.21192993211E-01 -0.19857864766E-02  0.19147367188E+00  0.19265387241E+00  0.51109989000E-03 0. -1.
     -623    1    1    2    0    0  0.78055801963E-02  0.86007684678E-02  0.15815932181E-02  0.25126702734E+02  0.25126700000E+02 0. -1.
     -611    1    3    3    0    0  0.17552037952E-01 -0.19751882642E-01  0.11408538298E+02  0.11408573281E+02  0.10000000000E-01 0. -1.
      611    1    3    3    0    0 -0.41646249377E-02  0.13136900651E-01  0.39840642588E+00  0.39877011228E+00  0.10000000000E-01 0.  1.
</event>
<event>
 7   0  0.6206631E-02  0.9118800E+02  0.7818608E-02  0.1180000E+00
       11   -1    0    0    0    0  0.00000000000E+00  0.00000000000E+00  0.11999999989E+02  0.12000000000E+02  0.51109989000E-03 0.  1.
     -623   -1    0    0    0    0  0.00000000000E+00  0.00000000000E+00  0.42561509872E-11  0.25126700000E+02  0.25126700000E+02 0. -1.
      622    2    1    2    0    0 -0.83179921969E-02  0.45055268241E-02  0.11618080763E+02  0.11618576581E+02  0.10691893411E+00 0.  0.
       11    1    1    2    0    0  0.12566235982E-01 -0.30557070525E-02  0.38120336045E+00  0.38142300779E+00  0.51109989000E-03 0.  1.
     -623    1    1    2    0    0 -0.42482437848E-02 -0.14498197716E-02  0.71586537281E-03  0.25126700411E+02  0.25126700000E+02 0. -1.
     -611    1    3    3    0    0  0.13191825839E-01 -0.43650676424E-01  0.75099888663E+01  0.75101339653E+01  0.10000000000E-01 0.  1.
      611    1    3    3    0    0 -0.21509818036E-01  0.48156203248E-01  0.41080918970E+01  0.41084426157E+01  0.10000000000E-01 0. -1.
</event>
<event>
 7   0  0.6206631E-02  0.9118800E+02  0.7818608E-02  0.1180000E+00
       11   -1    0    0    0    0  0.00000000000E+00  0.00000000000E+00  0.11999999989E+02  0.12000000000E+02  0.51109989000E-03 0. -1.
     -623   -1    0    0    0    0  0.00000000000E+00  0.00000000000E+00  0.42561509872E-11  0.25126700000E+02  0.25126700000E+02 0. -1.
      622    2    1    2    0    0 -0.29516766452E-02 -0.40125237722E-02  0.11989639429E+02  0.11990231019E+02  0.11900192418E+00 0.  0.
       11    1    1    2    0    0 -0.22444268513E-02  0.12894097435E-02  0.94052111175E-02  0.97682776723E-02  0.51109989000E-03 0. -1.
     -623    1    1    2    0    0  0.51961034965E-02  0.27231140287E-02  0.95534946100E-03  0.25126700703E+02  0.25126700000E+02 0. -1.
     -611    1    3    3    0    0 -0.29897841123E-01  0.49310648978E-01  0.59342146017E+01  0.59345032109E+01  0.10000000000E-01 0. -1.
      611    1    3    3    0    0  0.26946164478E-01 -0.53323172750E-01  0.60554248269E+01  0.60557278085E+01  0.10000000000E-01 0.  1.
</event>
<event>
 7   0  0.6206631E-02  0.9118800E+02  0.7818608E-02  0.1180000E+00
       11   -1    0    0    0    0  0.00000000000E+00  0.00000000000E+00  0.11999999989E+02  0.12000000000E+02  0.51109989000E-03 0. -1.
     -623   -1    0    0    0    0  0.00000000000E+00  0.00000000000E+00  0.42561509872E-11  0.25126700000E+02  0.25126700000E+02 0. -1.
      622    2    1    2    0    0 -0.43320463701E-01  0.21851258529E-02  0.10119354892E+02  0.10119673440E+02  0.67569685251E-01 0.  0.
       11    1    1    2    0    0  0.43844186191E-01  0.14865189192E-01  0.18797506725E+01  0.18803207541E+01  0.51109989000E-03 0. -1.
     -623    1    1    2    0    0 -0.52372249064E-03 -0.17050315045E-01  0.89442498395E-03  0.25126705806E+02  0.25126700000E+02 0. -1.
     -611    1    3    3    0    0  0.73897664960E-03  0.25615617330E-02  0.24881694322E+00  0.24903208411E+00  0.10000000000E-01 0. -1.
      611    1    3    3    0    0 -0.44059440350E-01 -0.37643588007E-03  0.98705379484E+01  0.98706413554E+01  0.10000000000E-01 0. -1.
</event>
<event>
 7   0  0.6206631E-02  0.9118800E+02  0.7818608E-02  0.1180000E+00
       11   -1    0    0    0    0  0.00000000000E+00  0.00000000000E+00  0.11999999989E+02  0.12000000000E+02  0.51109989000E-03 0.  1.
     -623   -1    0    0    0    0  0.00000000000E+00  0.00000000000E+00  0.42561509872E-11  0.25126700000E+02  0.25126700000E+02 0. -1.
      622    2    1    2    0    0 -0.73617781925E-01 -0.85220863769E-01  0.92745874348E+01  0.92758188807E+01  0.10080500070E+00 0.  0.
       11    1    1    2    0    0  0.80612250789E-01  0.94950194202E-01  0.27213289511E+01  0.27241779303E+01  0.51109989000E-03 0.  1.
     -623    1    1    2    0    0 -0.69944688638E-02 -0.97293304326E-02  0.40836031653E-02  0.25126703189E+02  0.25126700000E+02 0. -1.
     -611    1    3    3    0    0  0.80500099135E-02 -0.34180572902E-01  0.50074276536E+01  0.50075607655E+01  0.10000000000E-01 0. -1.
      611    1    3    3    0    0 -0.81667791839E-01 -0.51040290867E-01  0.42671597812E+01  0.42682581152E+01  0.10000000000E-01 0.  1.
</event>
<event>
 7   0  0.6206631E-02  0.9118800E+02  0.7818608E-02  0.1180000E+00
       11   -1    0    0    0    0  0.00000000000E+00  0.00000000000E+00  0.11999999989E+02  0.12000000000E+02  0.51109989000E-03 0.  1.
     -623   -1    0    0    0    0  0.00000000000E+00  0.00000000000E+00  0.42561509872E-11  0.25126700000E+02  0.25126700000E+02 0.  1.
      622    2    1    2    0    0 -0.83394637094E-04 -0.81269608307E-03  0.11989982092E+02  0.11990443539E+02  0.10519050281E+00 0.  0.
       11    1    1    2    0    0  0.10394834325E-02 -0.51727355879E-03  0.94718261758E-02  0.95564016232E-02  0.51109989000E-03 0.  1.
     -623    1    1    2    0    0 -0.95608879536E-03  0.13299696419E-02  0.54607146642E-03  0.25126700059E+02  0.25126700000E+02 0.  1.
     -611    1    3    3    0    0  0.26952797211E-01  0.43276853881E-01  0.53353649737E+01  0.53356179344E+01  0.10000000000E-01 0.  1.
      611    1    3    3    0    0 -0.27036191848E-01 -0.44089549964E-01  0.66546171178E+01  0.66548256047E+01  0.10000000000E-01 0. -1.
</event>
<event>
 7   0  0.6206631E-02  0.9118800E+02  0.7818608E-02  0.1180000E+00
       11   -1    0    0    0    0  0.00000000000E+00  0.00000000000E+00  0.11999999989E+02  0.12000000000E+02  0.51109989000E-03 0.  1.
     -623   -1    0    0    0    0  0.00000000000E+00  0.00000000000E+00  0.42561509872E-11  0.25126700000E+02  0.25126700000E+02 0. -1.
      622    2    1    2    0    0 -0.14395043321E-02  0.33644062168E-01  0.95028667543E+01  0.95034446568E+01  0.99246159333E-01 0.  0.
       11    1    1    2    0    0  0.10713955187E-02 -0.12391800667E-01  0.24965153090E+01  0.24965463452E+01  0.51109989000E-03 0.  1.
     -623    1    1    2    0    0  0.36810881339E-03 -0.21252261502E-01  0.61792578971E-03  0.25126708998E+02  0.25126700000E+02 0. -1.
     -611    1    3    3    0    0  0.24747901972E-01 -0.92006746949E-04  0.76935929764E+01  0.76936392788E+01  0.10000000000E-01 0.  1.
      611    1    3    3    0    0 -0.26187406304E-01  0.33736068915E-01  0.18092737780E+01  0.18098053780E+01  0.10000000000E-01 0. -1.
</event>
<event>
 7   0  0.6206631E-02  0.9118800E+02  0.7818608E-02  0.1180000E+00
       11   -1    0    0    0    0  0.00000000000E+00  0.00000000000E+00  0.11999999989E+02  0.12000000000E+02  0.51109989000E-03 0.  1.
     -623   -1    0    0    0    0  0.00000000000E+00  0.00000000000E+00  0.42561509872E-11  0.25126700000E+02  0.25126700000E+02 0. -1.
      622    2    1    2    0    0  0.29910291602E-01  0.16685526217E-01  0.11089425620E+02  0.11089854260E+02  0.91290244970E-01 0.  0.
       11    1    1    2    0    0 -0.19128737857E-01  0.19800076798E-01  0.90970027924E+00  0.91011692156E+00  0.51109989000E-03 0.  1.
     -623    1    1    2    0    0 -0.10781553745E-01 -0.36485603015E-01  0.87409014502E-03  0.25126728818E+02  0.25126700000E+02 0. -1.
     -611    1    3    3    0    0 -0.28940564598E-01  0.45283398076E-02  0.21717723832E+01  0.21719929435E+01  0.10000000000E-01 0. -1.
      611    1    3    3    0    0  0.58850856200E-01  0.12157186410E-01  0.89176532365E+01  0.89178613168E+01  0.10000000000E-01 0.  1.
</event>
<event>
 7   0  0.6206631E-02  0.9118800E+02  0.7818608E-02  0.1180000E+00
       11   -1    0    0    0    0  0.00000000000E+00  0.00000000000E+00  0.11999999989E+02  0.12000000000E+02  0.51109989000E-03 0.  1.
     -623   -1    0    0    0    0  0.00000000000E+00  0.00000000000E+00  0.42561509872E-11  0.25126700000E+02  0.25126700000E+02 0.  1.
      622    2    1    2    0    0 -0.31581044648E-02 -0.60061454903E-03  0.11316810702E+02  0.11317235444E+02  0.97996445361E-01 0.  0.
       11    1    1    2    0    0  0.65038249064E-02 -0.54850386619E-02  0.68271038934E+00  0.68276359183E+00  0.51109989000E-03 0.  1.
     -623    1    1    2    0    0 -0.33457204416E-02  0.60856532109E-02  0.47889822390E-03  0.25126700964E+02  0.25126700000E+02 0.  1.
     -611    1    3    3    0    0 -0.33829777484E-01  0.32150787600E-01  0.40892928432E+01  0.40895713815E+01  0.10000000000E-01 0. -1.
      611    1    3    3    0    0  0.30671673019E-01 -0.32751402149E-01  0.72275178583E+01  0.72276640624E+01  0.10000000000E-01 0.  1.
</event>
<event>
 7   0  0.6206631E-02  0.9118800E+02  0.7818608E-02  0.1180000E+00
       11   -1    0    0    0    0  0.00000000000E+00  0.00000000000E+00  0.11999999989E+02  0.12000000000E+02  0.51109989000E-03 0. -1.
     -623   -1    0    0    0    0  0.00000000000E+00  0.00000000000E+00  0.42561509872E-11  0.25126700000E+02  0.25126700000E+02 0. -1.
      622    2    1    2    0    0  0.16857570581E-01 -0.79706449367E-02  0.10335604706E+02  0.10335708738E+02  0.42458979304E-01 0.  0.
       11    1    1    2    0    0 -0.16319174537E-01  0.73602434979E-02  0.16641948829E+01  0.16642912480E+01  0.51109989000E-03 0. -1.
     -623    1    1    2    0    0 -0.53839604461E-03  0.61040143888E-03  0.20039998380E-03  0.25126700014E+02  0.25126700000E+02 0. -1.
     -611    1    3    3    0    0  0.88198984157E-02 -0.15127899066E-01  0.22416784658E+01  0.22417691647E+01  0.10000000000E-01 0.  1.
      611    1    3    3    0    0  0.80376721653E-02  0.71572541294E-02  0.80939262403E+01  0.80939395732E+01  0.10000000000E-01 0. -1.
</event>
<event>
 7   0  0.6206631E-02  0.9118800E+02  0.7818608E-02  0.1180000E+00
       11   -1    0    0    0    0  0.00000000000E+00  0.00000000000E+00  0.11999999989E+02  0.12000000000E+02  0.51109989000E-03 0.  1.
     -623   -1    0    0    0    0  0.00000000000E+00  0.00000000000E+00  0.42561509872E-11  0.25126700000E+02  0.25126700000E+02 0.  1.
      622    2    1    2    0    0 -0.17207115234E-01  0.80314670557E-04  0.99776600348E+01  0.99781489750E+01  0.97268209518E-01 0.  0.
       11    1    1    2    0    0  0.17656781290E-01  0.12082202144E-02  0.20217734564E+01  0.20218509816E+01  0.51109989000E-03 0.  1.
     -623    1    1    2    0    0 -0.44966605683E-03 -0.12885348850E-02  0.56649793587E-03  0.25126700043E+02  0.25126700000E+02 0.  1.
     -611    1    3    3    0    0  0.12372884500E-01 -0.99853902553E-02  0.40744380320E+00  0.40787651202E+00  0.10000000000E-01 0.  1.
      611    1    3    3    0    0 -0.29579999733E-01  0.10065704926E-01  0.95702162316E+01  0.95702724629E+01  0.10000000000E-01 0.  1.
</event>
<event>
 7   0  0.6206631E-02  0.9118800E+02  0.7818608E-02  0.1180000E+00
       11   -1    0    0    0    0  0.00000000000E+00  0.00000000000E+00  0.11999999989E+02  0.12000000000E+02  0.51109989000E-03 0.  1.
     -623   -1    0    0    0    0  0.00000000000E+00  0.00000000000E+00  0.42561509872E-11  0.25126700000E+02  0.25126700000E+02 0.  1.
      622    2    1    2    0    0 -0.34223418294E-02 -0.36724411100E-02  0.11978408700E+02  0.11979025029E+02  0.12141033162E+00 0.  0.
       11    1    1    2    0    0  0.98265132246E-02  0.42991607946E-02  0.18016653499E-01  0.20973892633E-01  0.51109989000E-03 0.  1.
     -623    1    1    2    0    0 -0.64041713952E-02 -0.62671968451E-03  0.35746357527E-02  0.25126701078E+02  0.25126700000E+02 0.  1.
     -611    1    3    3    0    0 -0.13383310485E-01  0.14984975983E-01  0.11518359790E+02  0.11518381653E+02  0.10000000000E-01 0.  1.
      611    1    3    3    0    0  0.99609686558E-02 -0.18657417093E-01  0.46004891003E+00  0.46064337586E+00  0.10000000000E-01 0. -1.
</event>
<event>
 6   0  0.6206631E-02  0.9118800E+02  0.7818608E-02  0.1180000E+00
       11   -1    0    0    0    0  0.00000000000E+00  0.00000000000E+00  0.11999999989E+02  0.12000000000E+02  0.51109989000E-03 0.  1.
     -623   -1    0    0    0    0  0.00000000000E+00  0.00000000000E+00  0.42561509872E-11  0.25126700000E+02  0.25126700000E+02 0.  1.
       11    1    1    2    0    0 -0.89125218368E-02  0.53176203054E-01  0.74842977506E+00  0.75036959629E+00  0.51109989000E-03 0.  1.
     -623    1    1    2    0    0  0.37835282844E-01 -0.77336996292E-01  0.43982045421E-02  0.25126847887E+02  0.25126700000E+02 0.  1.
     -611    1    1    2    0    0  0.58990902402E-01  0.97839095331E-02  0.95619138528E+00  0.95811148450E+00  0.10000000000E-01 0. -1.
      611    1    1    2    0    0 -0.87913663409E-01  0.14376883705E-01  0.10290980624E+02  0.10291371032E+02  0.10000000000E-01 0.  1.
</event>
<event>
 7   0  0.6206631E-02  0.9118800E+02  0.7818608E-02  0.1180000E+00
       11   -1    0    0    0    0  0.00000000000E+00  0.00000000000E+00  0.11999999989E+02  0.12000000000E+02  0.51109989000E-03 0. -1.
     -623   -1    0    0    0    0  0.00000000000E+00  0.00000000000E+00  0.42561509872E-11  0.25126700000E+02  0.25126700000E+02 0.  1.
      622    2    1    2    0    0  0.20030028013E-01  0.10108257886E-01  0.11543310515E+02  0.11545046247E+02  0.19892662996E+00 0.  0.
       11    1    1    2    0    0 -0.20875105452E-01 -0.84970561819E-02  0.45439468650E+00  0.45495358262E+00  0.51109989000E-03 0. -1.
     -623    1    1    2    0    0  0.84507743940E-03 -0.16112017037E-02  0.22947871719E-02  0.25126700171E+02  0.25126700000E+02 0.  1.
     -611    1    3    3    0    0 -0.21920292423E-01 -0.38025992795E-02  0.10943262174E+02  0.10943289358E+02  0.10000000000E-01 0. -1.
      611    1    3    3    0    0  0.41950320436E-01  0.13910857165E-01  0.60004834125E+00  0.60175688875E+00  0.10000000000E-01 0.  1.
</event>
<event>
 7   0  0.6206631E-02  0.9118800E+02  0.7818608E-02  0.1180000E+00
       11   -1    0    0    0    0  0.00000000000E+00  0.00000000000E+00  0.11999999989E+02  0.12000000000E+02  0.51109989000E-03 0.  1.
     -623   -1    0    0    0    0  0.00000000000E+00  0.00000000000E+00  0.42561509872E-11  0.25126700000E+02  0.25126700000E+02 0. -1.
      622    2    1    2    0    0 -0.85516116774E-02 -0.58850772315E-02  0.11774990378E+02  0.11775482862E+02  0.10719352668E+00 0.  0.
       11    1    1    2    0    0 -0.44739126887E-02  0.48312424180E-02  0.22441657309E+00  0.22451373299E+00  0.51109989000E-03 0.  1.
     -623    1    1    2    0    0  0.13025524366E-01  0.10538348135E-02  0.59303765444E-03  0.25126703405E+02  0.25126700000E+02 0. -1.
     -611    1    3    3    0    0  0.38345589372E-01 -0.12743081917E-01  0.23544506794E+01  0.23548186282E+01  0.10000000000E-01 0. -1.
      611    1    3    3    0    0 -0.46897201049E-01  0.68580046858E-02  0.94205396990E+01  0.94206642335E+01  0.10000000000E-01 0.  1.
</event>
<event>
 7   0  0.6206631E-02  0.9118800E+02  0.7818608E-02  0.1180000E+00
       11   -1    0    0    0    0  0.00000000000E+00  0.00000000000E+00  0.11999999989E+02  0.12000000000E+02  0.51109989000E-03 0. -1.
     -623   -1    0    0    0    0  0.00000000000E+00  0.00000000000E+00  0.42561509872E-11  0.25126700000E+02  0.25126700000E+02 0. -1.
      622    2    1    2    0    0  0.43462434883E-02 -0.36718479267E-02  0.11937697181E+02  0.11937952035E+02  0.77797355818E-01 0.  0.
       11    1    1    2    0    0 -0.88054398951E-02 -0.37553511149E-02  0.61301407413E-01  0.62046452015E-01  0.51109989000E-03 0. -1.
     -623    1    1    2    0    0  0.44591964067E-02  0.74271990416E-02  0.10014009023E-02  0.25126701513E+02  0.25126700000E+02 0. -1.
     -611    1    3    3    0    0 -0.16231601072E-01  0.23445128785E-01  0.24190418660E+01  0.24192305984E+01  0.10000000000E-01 0. -1.
      611    1    3    3    0    0  0.20577844560E-01 -0.27116976711E-01  0.95186553148E+01  0.95187214363E+01  0.10000000000E-01 0. -1.
</event>
<event>
 7   0  0.6206631E-02  0.9118800E+02  0.7818608E-02  0.1180000E+00
       11   -1    0    0    0    0  0.00000000000E+00  0.00000000000E+00  0.11999999989E+02  0.12000000000E+02  0.51109989000E-03 0.  1.
     -623   -1    0    0    0    0  0.00000000000E+00  0.00000000000E+00  0.42561509872E-11  0.25126700000E+02  0.25126700000E+02 0. -1.
      622    2    1    2    0    0 -0.54392086659E-01  0.82005074073E-01  0.11223120887E+02  0.11223822651E+02  0.77904693184E-01 0.  0.
       11    1    1    2    0    0 -0.24594749960E-01 -0.39624306376E-01  0.77461454206E+00  0.77601735636E+00  0.51109989000E-03 0.  1.
     -623    1    1    2    0    0  0.78986836618E-01 -0.42380767698E-01  0.22645603259E-02  0.25126859992E+02  0.25126700000E+02 0. -1.
     -611    1    3    3    0    0 -0.64771653541E-01  0.49184151457E-01  0.93482348135E+01  0.93485939358E+01  0.10000000000E-01 0.  1.
      611    1    3    3    0    0  0.10379566882E-01  0.32820922617E-01  0.18748860732E+01  0.18752287156E+01  0.10000000000E-01 0. -1.
</event>
<event>
 7   0  0.6206631E-02  0.9118800E+02  0.7818608E-02  0.1180000E+00
       11   -1    0    0    0    0  0.00000000000E+00  0.00000000000E+00  0.11999999989E+02  0.12000000000E+02  0.51109989000E-03 0. -1.
     -623   -1    0    0    0    0  0.00000000000E+00  0.00000000000E+00  0.42561509872E-11  0.25126700000E+02  0.25126700000E+02 0.  1.
      622    2    1    2    0    0  0.67053462045E-02  0.10703326588E-01  0.11920887252E+02  0.11921100151E+02  0.70117191456E-01 0.  0.
       11    1    1    2    0    0 -0.13920935438E-03 -0.98776762829E-02  0.78276416234E-01  0.78898963425E-01  0.51109989000E-03 0. -1.
     -623    1    1    2    0    0 -0.65661368501E-02 -0.82565030526E-03  0.83632107050E-03  0.25126700885E+02  0.25126700000E+02 0.  1.
     -611    1    3    3    0    0  0.12601780504E-01  0.34980427533E-01  0.91815128947E+01  0.91815936237E+01  0.10000000000E-01 0. -1.
      611    1    3    3    0    0 -0.58964342994E-02 -0.24277100945E-01  0.27393743571E+01  0.27395065275E+01  0.10000000000E-01 0. -1.
</event>
<event>
 7   0  0.6206631E-02  0.9118800E+02  0.7818608E-02  0.1180000E+00
       11   -1    0    0    0    0  0.00000000000E+00  0.00000000000E+00  0.11999999989E+02  0.12000000000E+02  0.51109989000E-03 0. -1.
     -623   -1    0    0    0    0  0.00000000000E+00  0.00000000000E+00  0.42561509872E-11  0.25126700000E+02  0.25126700000E+02 0. -1.
      622    2    1    2    0    0  0.14647038716E+00  0.22454496956E-01  0.74927524371E+01  0.74950432839E+01  0.11125180587E+00 0.  0.
       11    1    1    2    0    0 -0.13687684242E+00 -0.18828969836E-01  0.45028349519E+01  0.45049542356E+01  0.51109989000E-03 0. -1.
     -623    1    1    2    0    0 -0.95935447359E-02 -0.36255271209E-02  0.44126000844E-02  0.25126702480E+02  0.25126700000E+02 0. -1.
     -611    1    3    3    0    0  0.15856133556E+00  0.47217400775E-02  0.68752187483E+01  0.68770558256E+01  0.10000000000E-01 0. -1.
      611    1    3    3    0    0 -0.12090948400E-01  0.17732756879E-01  0.61753368886E+00  0.61798745827E+00  0.10000000000E-01 0.  1.
</event>
<event>
 7   0  0.6206631E-02  0.9118800E+02  0.7818608E-02  0.1180000E+00
       11   -1    0    0    0    0  0.00000000000E+00  0.00000000000E+00  0.11999999989E+02  0.12000000000E+02  0.51109989000E-03 0.  1.
     -623   -1    0    0    0    0  0.00000000000E+00  0.00000000000E+00  0.42561509872E-11  0.25126700000E+02  0.25126700000E+02 0.  1.
      622    2    1    2    0    0  0.20794475464E-01  0.46233890848E-01  0.80590415926E+01  0.80601174260E+01  0.12153825210E+00 0.  0.
       11    1    1    2    0    0 -0.83448455857E-02 -0.36762965898E-01  0.39396972811E+01  0.39398776732E+01  0.51109989000E-03 0.  1.
     -623    1    1    2    0    0 -0.12449629878E-01 -0.94709249505E-02  0.12611154539E-02  0.25126704901E+02  0.25126700000E+02 0.  1.
     -611    1    3    3    0    0  0.89731817674E-02  0.71111585215E-01  0.74673652954E+01  0.74677159715E+01  0.10000000000E-01 0. -1.
      611    1    3    3    0    0  0.11821293696E-01 -0.24877694366E-01  0.59167629717E+00  0.59240145450E+00  0.10000000000E-01 0.  1.
</event>
<event>
 7   0  0.6206631E-02  0.9118800E+02  0.7818608E-02  0.1180000E+00
       11   -1    0    0    0    0  0.00000000000E+00  0.00000000000E+00  0.11999999989E+02  0.12000000000E+02  0.51109989000E-03 0. -1.
     -623   -1    0    0    0    0  0.00000000000E+00  0.00000000000E+00  0.42561509872E-11  0.25126700000E+02  0.25126700000E+02 0.  1.
      622    2    1    2    0    0 -0.38707622882E-03  0.36086138199E-02  0.11936450742E+02  0.11936909698E+02  0.10461191286E+00 0.  0.
       11    1    1    2    0    0 -0.18069591214E-03  0.23163086360E-02  0.63044725350E-01  0.63089591489E-01  0.51109989000E-03 0. -1.
     -623    1    1    2    0    0  0.56777214097E-03 -0.59249224559E-02  0.50452138609E-03  0.25126700710E+02  0.25126700000E+02 0.  1.
     -611    1    3    3    0    0  0.16755294705E-01  0.33960378640E-01  0.19509910088E+01  0.19513841148E+01  0.10000000000E-01 0.  1.
      611    1    3    3    0    0 -0.17142370934E-01 -0.30351764820E-01  0.99854597336E+01  0.99855255837E+01  0.10000000000E-01 0. -1.
</event>
<event>
 7   0  0.6206631E-02  0.9118800E+02  0.7818608E-02  0.1180000E+00
       11   -1    0    0    0    0  0.00000000000E+00  0.00000000000E+00  0.11999999989E+02  0.12000000000E+02  0.51109989000E-03 0. -1.
     -623   -1    0    0    0    0  0.00000000000E+00  0.00000000000E+00  0.42561509872E-11  0.25126700000E+02  0.25126700000E+02 0. -1.
      622    2    1    2    0    0 -0.42697394811E-01  0.89316189505E-02  0.84533878939E+01  0.84542626325E+01  0.11352062646E+00 0.  0.
       11    1    1    2    0    0  0.50906879443E-01 -0.43266531662E-01  0.35450830057E+01  0.35457125210E+01  0.51109989000E-03 0. -1.
     -623    1    1    2    0    0 -0.82094846322E-02  0.34334912711E-01  0.15290894634E-02  0.25126724846E+02  0.25126700000E+02 0. -1.
     -611    1    3    3    0    0  0.25903486320E-01 -0.30957395502E-01  0.27833916830E+01  0.27837023210E+01  0.10000000000E-01 0.  1.
      611    1    3    3    0    0 -0.68600881131E-01  0.39889014453E-01  0.56699962109E+01  0.56705603115E+01  0.10000000000E-01 0. -1.
</event>
<event>
 7   0  0.6206631E-02  0.9118800E+02  0.7818608E-02  0.1180000E+00
       11   -1    0    0    0    0  0.00000000000E+00  0.00000000000E+00  0.11999999989E+02  0.12000000000E+02  0.51109989000E-03 0.  1.
     -623   -1    0    0    0    0  0.00000000000E+00  0.00000000000E+00  0.42561509872E-11  0.25126700000E+02  0.25126700000E+02 0. -1.
      622    2    1    2    0    0 -0.92194627912E-04  0.90487845818E-03  0.11987022670E+02  0.11987124651E+02  0.49437746382E-01 0.  0.
       11    1    1    2    0    0  0.10112665565E-02 -0.19367755183E-03  0.12823903764E-01  0.12875321430E-01  0.51109989000E-03 0.  1.
     -623    1    1    2    0    0 -0.91907192854E-03 -0.71120090635E-03  0.15341556847E-03  0.25126700027E+02  0.25126700000E+02 0. -1.
     -611    1    3    3    0    0 -0.16854806532E-01 -0.14572424037E-01  0.63403157669E+01  0.63403628022E+01  0.10000000000E-01 0.  1.
      611    1    3    3    0    0  0.16762611904E-01  0.15477302495E-01  0.56467069029E+01  0.56467618490E+01  0.10000000000E-01 0.  1.
</event>
<event>
 7   0  0.6206631E-02  0.9118800E+02  0.7818608E-02  0.1180000E+00
       11   -1    0    0    0    0  0.00000000000E+00  0.00000000000E+00  0.11999999989E+02  0.12000000000E+02  0.51109989000E-03 0.  1.
     -623   -1    0    0    0    0  0.00000000000E+00  0.00000000000E+00  0.42561509872E-11  0.25126700000E+02  0.25126700000E+02 0. -1.
      622    2    1    2    0    0  0.37907784674E-02 -0.19617240364E-02  0.11943235938E+02  0.11943323360E+02  0.45497116501E-01 0.  0.
       11    1    1    2    0    0 -0.24823036337E-02 -0.18301987810E-02  0.56590038623E-01  0.56676319159E-01  0.51109989000E-03 0.  1.
     -623    1    1    2    0    0 -0.13084748337E-02  0.37919228175E-02  0.17401224972E-03  0.25126700321E+02  0.25126700000E+02 0. -1.
     -611    1    3    3    0    0  0.22198108682E-01  0.83918169895E-03  0.69496982957E+01  0.69497409924E+01  0.10000000000E-01 0.  1.
      611    1    3    3    0    0 -0.18407330214E-01 -0.28009057354E-02  0.49935376426E+01  0.49935823677E+01  0.10000000000E-01 0. -1.
</event>
<event>
 7   0  0.6206631E-02  0.9118800E+02  0.7818608E-02  0.1180000E+00
       11   -1    0    0    0    0  0.00000000000E+00  0.00000000000E+00  0.11999999989E+02  0.12000000000E+02  0.51109989000E-03 0.  1.
     -623   -1    0    0    0    0  0.00000000000E+00  0.00000000000E+00  0.42561509872E-11  0.25126700000E+02  0.25126700000E+02 0. -1.
      622    2    1    2    0    0  0.19334342036E-02  0.24090942710E-02  0.11989039497E+02  0.11989444327E+02  0.98476660744E-01 0.  0.
       11    1    1    2    0    0  0.17265484032E-03 -0.18563807045E-02  0.10377038259E-01  0.10555572234E-01  0.51109989000E-03 0.  1.
     -623    1    1    2    0    0 -0.21060890439E-02 -0.55271356648E-03  0.58345358750E-03  0.25126700101E+02  0.25126700000E+02 0. -1.
     -611    1    3    3    0    0  0.26110722241E-01 -0.42664102524E-03  0.10475001091E+01  0.10478732893E+01  0.10000000000E-01 0. -1.
      611    1    3    3    0    0 -0.24177288037E-01  0.28357352962E-02  0.10941539388E+02  0.10941571037E+02  0.10000000000E-01 0.  1.
</event>
<event>
 7   0  0.6206631E-02  0.9118800E+02  0.7818608E-02  0.1180000E+00
       11   -1    0    0    0    0  0.00000000000E+00  0.00000000000E+00  0.11999999989E+02  0.12000000000E+02  0.51109989000E-03 0.  1.
     -623   -1    0    0    0    0  0.00000000000E+00  0.00000000000E+00  0.42561509872E-11  0.25126700000E+02  0.25126700000E+02 0. -1.
      622    2    1    2    0    0 -0.44632302420E-01 -0.82975010726E-01  0.67797964815E+01  0.67810627618E+01  0.91076636533E-01 0.  0.
       11    1    1    2    0    0  0.34294173988E-01  0.79244337801E-01  0.52182203837E+01  0.52189347562E+01  0.51109989000E-03 0.  1.
     -623    1    1    2    0    0  0.10338128432E-01  0.37306729259E-02  0.19831238717E-02  0.25126702482E+02  0.25126700000E+02 0. -1.
     -611    1    3    3    0    0 -0.60570909310E-01 -0.86071559874E-01  0.63007351384E+01  0.63016220477E+01  0.10000000000E-01 0.  1.
      611    1    3    3    0    0  0.15938606890E-01  0.30965491482E-02  0.47906134317E+00  0.47944071409E+00  0.10000000000E-01 0. -1.
</event>
<event>
 7   0  0.6206631E-02  0.9118800E+02  0.7818608E-02  0.1180000E+00
       11   -1    0    0    0    0  0.00000000000E+00  0.00000000000E+00  0.11999999989E+02  0.12000000000E+02  0.51109989000E-03 0.  1.
     -623   -1    0    0    0    0  0.00000000000E+00  0.00000000000E+00  0.42561509872E-11  0.25126700000E+02  0.25126700000E+02 0.  1.
      622    2    1    2    0    0 -0.44547617928E-02  0.42773505741E-02  0.11905171324E+02  0.11905710580E+02  0.11314593463E+00 0.  0.
       11    1    1    2    0    0  0.40472063859E-02 -0.25538967602E-02  0.94166437196E-01  0.94289349269E-01  0.51109989000E-03 0.  1.
     -623    1    1    2    0    0  0.40755540695E-03 -0.17234538139E-02  0.66222758446E-03  0.25126700071E+02  0.25126700000E+02 0.  1.
     -611    1    3    3    0    0  0.33059753723E-01 -0.10165683608E-01  0.14166194622E+01  0.14170769171E+01  0.10000000000E-01 0. -1.
      611    1    3    3    0    0 -0.37514515516E-01  0.14443034182E-01  0.10488551862E+02  0.10488633662E+02  0.10000000000E-01 0.  1.
</event>
<event>
 7   0  0.6206631E-02  0.9118800E+02  0.7818608E-02  0.1180000E+00
       11   -1    0    0    0    0  0.00000000000E+00  0.00000000000E+00  0.11999999989E+02  0.12000000000E+02  0.51109989000E-03 0. -1.
     -623   -1    0    0    0    0  0.00000000000E+00  0.00000000000E+00  0.42561509872E-11  0.25126700000E+02  0.25126700000E+02 0.  1.
      622    2    1    2    0    0 -0.22593704804E-01 -0.12749374793E+00  0.11017470099E+02  0.11018600602E+02  0.90259174703E-01 0.  0.
       11    1    1    2    0    0  0.26268760192E-01  0.12470613814E+00  0.97308711534E+00  0.98139719987E+00  0.51109989000E-03 0. -1.
     -623    1    1    2    0    0 -0.36750553881E-02  0.27876097925E-02  0.94427746345E-02  0.25126702198E+02  0.25126700000E+02 0.  1.
     -611    1    3    3    0    0 -0.15828093767E-02  0.70682756460E-02  0.25457793006E+01  0.25458092452E+01  0.10000000000E-01 0.  1.
      611    1    3    3    0    0 -0.21010895427E-01 -0.13456202358E+00  0.84716907985E+01  0.84727913572E+01  0.10000000000E-01 0. -1.
</event>
<event>
 7   0  0.6206631E-02  0.9118800E+02  0.7818608E-02  0.1180000E+00
       11   -1    0    0    0    0  0.00000000000E+00  0.00000000000E+00  0.11999999989E+02  0.12000000000E+02  0.51109989000E-03 0. -1.
     -623   -1    0    0    0    0  0.00000000000E+00  0.00000000000E+00  0.42561509872E-11  0.25126700000E+02  0.25126700000E+02 0. -1.
      622    2    1    2    0    0 -0.46493655865E-02  0.30842849042E-02  0.11737177276E+02  0.11737605359E+02  0.10009007718E+00 0.  0.
       11    1    1    2    0    0 -0.37111723910E-02 -0.36811765068E-03  0.26236609748E+00  0.26239309946E+00  0.51109989000E-03 0. -1.
     -623    1    1    2    0    0  0.83605379775E-02 -0.27161672536E-02  0.45661587027E-03  0.25126701542E+02  0.25126700000E+02 0. -1.
     -611    1    3    3    0    0  0.15957134834E-03  0.38704696988E-01  0.97254316271E+01  0.97255137865E+01  0.10000000000E-01 0. -1.
      611    1    3    3    0    0 -0.48089369348E-02 -0.35620412084E-01  0.20117456487E+01  0.20120915721E+01  0.10000000000E-01 0.  1.
</event>
<event>
 7   0  0.6206631E-02  0.9118800E+02  0.7818608E-02  0.1180000E+00
       11   -1    0    0    0    0  0.00000000000E+00  0.00000000000E+00  0.11999999989E+02  0.12000000000E+02  0.51109989000E-03 0.  1.
     -623   -1    0    0    0    0  0.00000000000E+00  0.00000000000E+00  0.42561509872E-11  0.25126700000E+02  0.25126700000E+02 0. -1.
      622    2    1    2    0    0 -0.12426650341E-02  0.33493166844E-04  0.11995666712E+02  0.11995950421E+02  0.82492898803E-01 0.  0.
       11    1    1    2    0    0 -0.44108502642E-03  0.27685772101E-03  0.39832361238E-02  0.40495184108E-02  0.51109989000E-03 0.  1.
     -623    1    1    2    0    0  0.16837500605E-02 -0.31035088785E-03  0.35004059213E-03  0.25126700061E+02  0.25126700000E+02 0. -1.
     -611    1    3    3    0    0 -0.26811492971E-01  0.32617972251E-02  0.10429456599E+02  0.10429496366E+02  0.10000000000E-01 0.  1.
      611    1    3    3    0    0  0.25568827937E-01 -0.32283040583E-02  0.15662101136E+01  0.15664540551E+01  0.10000000000E-01 0.  1.
</event>
<event>
 7   0  0.6206631E-02  0.9118800E+02  0.7818608E-02  0.1180000E+00
       11   -1    0    0    0    0  0.00000000000E+00  0.00000000000E+00  0.11999999989E+02  0.12000000000E+02  0.51109989000E-03 0.  1.
     -623   -1    0    0    0    0  0.00000000000E+00  0.00000000000E+00  0.42561509872E-11  0.25126700000E+02  0.25126700000E+02 0.  1.
      622    2    1    2    0    0  0.28002986653E-02 -0.10611227086E-01  0.11797311773E+02  0.11798469723E+02  0.16493120089E+00 0.  0.
       11    1    1    2    0    0 -0.16476662110E-02  0.97250338922E-02  0.20128802139E+00  0.20153019592E+00  0.51109989000E-03 0.  1.
     -623    1    1    2    0    0 -0.11526324543E-02  0.88619319327E-03  0.14001949648E-02  0.25126700081E+02  0.25126700000E+02 0.  1.
     -611    1    3    3    0    0  0.44300640995E-01  0.57512284379E-01  0.34918857627E+01  0.34926546336E+01  0.10000000000E-01 0. -1.
      611    1    3    3    0    0 -0.41500342330E-01 -0.68123511465E-01  0.83054260101E+01  0.83058150894E+01  0.10000000000E-01 0.  1.
</event>
<event>
 7   0  0.6206631E-02  0.9118800E+02  0.7818608E-02  0.1180000E+00
       11   -1    0    0    0    0  0.00000000000E+00  0.00000000000E+00  0.11999999989E+02  0.12000000000E+02  0.51109989000E-03 0. -1.
     -623   -1    0    0    0    0  0.00000000000E+00  0.00000000000E+00  0.42561509872E-11  0.25126700000E+02  0.25126700000E+02 0.  1.
      622    2    1    2    0    0  0.31641308012E-02  0.32118650522E-02  0.11031086863E+02  0.11031279053E+02  0.64960297521E-01 0.  0.
       11    1    1    2    0    0  0.56248845706E-02 -0.19622329040E-02  0.96870092507E+00  0.96871937791E+00  0.51109989000E-03 0. -1.
     -623    1    1    2    0    0 -0.87890153718E-02 -0.12496321481E-02  0.21220116438E-03  0.25126701569E+02  0.25126700000E+02 0.  1.
     -611    1    3    3    0    0  0.56905599656E-02  0.11670966184E-01  0.10535366243E+02  0.10535378990E+02  0.10000000000E-01 0. -1.
      611    1    3    3    0    0 -0.25264291645E-02 -0.84591011322E-02  0.49572062036E+00  0.49590006320E+00  0.10000000000E-01 0. -1.
</event>
<event>
 7   0  0.6206631E-02  0.9118800E+02  0.7818608E-02  0.1180000E+00
       11   -1    0    0    0    0  0.00000000000E+00  0.00000000000E+00  0.11999999989E+02  0.12000000000E+02  0.51109989000E-03 0. -1.
     -623   -1    0    0    0    0  0.00000000000E+00  0.00000000000E+00  0.42561509872E-11  0.25126700000E+02  0.25126700000E+02 0. -1.
      622    2    1    2    0    0  0.20836298321E-01 -0.16755978307E-01  0.11152321770E+02  0.11152541478E+02  0.64696569068E-01 0.  0.
       11    1    1    2    0    0 -0.26907075445E-01  0.21751778685E-01  0.84675051880E+00  0.84745727497E+00  0.51109989000E-03 0. -1.
     -623    1    1    2    0    0  0.60707771241E-02 -0.49958003772E-02  0.92770057469E-03  0.25126701247E+02  0.25126700000E+02 0. -1.
     -611    1    3    3    0    0 -0.13170661020E-01 -0.27837758792E-01  0.58542506125E+01  0.58543401542E+01  0.10000000000E-01 0.  1.
      611    1    3    3    0    0  0.34006959341E-01  0.11081780484E-01  0.52980711572E+01  0.52982013236E+01  0.10000000000E-01 0. -1.
</event>
<event>
 7   0  0.6206631E-02  0.9118800E+02  0.7818608E-02  0.1180000E+00
       11   -1    0    0    0    0  0.00000000000E+00  0.00000000000E+00  0.11999999989E+02  0.12000000000E+02  0.51109989000E-03 0. -1.
     -623   -1    0    0    0    0  0.00000000000E+00  0.00000000000E+00  0.42561509872E-11  0.25126700000E+02  0.25126700000E+02 0.  1.
      622    2    1    2    0    0  0.24405936968E-01  0.25328115954E-01  0.98611125690E+01  0.98620855615E+01  0.13399015459E+00 0.  0.
       11    1    1    2    0    0  0.39045953968E-02 -0.26259295103E-01  0.21377335445E+01  0.21378984458E+01  0.51109989000E-03 0. -1.
     -623    1    1    2    0    0 -0.28310532365E-01  0.93117914961E-03  0.11538756967E-02  0.25126715993E+02  0.25126700000E+02 0.  1.
     -611    1    3    3    0    0 -0.24121331659E-01  0.73099306384E-02  0.83656615792E+01  0.83657055250E+01  0.10000000000E-01 0. -1.
      611    1    3    3    0    0  0.48527268627E-01  0.18018185315E-01  0.14954509898E+01  0.14963800365E+01  0.10000000000E-01 0.  1.
</event>
<event>
 7   0  0.6206631E-02  0.9118800E+02  0.7818608E-02  0.1180000E+00
       11   -1    0    0    0    0  0.00000000000E+00  0.00000000000E+00  0.11999999989E+02  0.12000000000E+02  0.51109989000E-03 0. -1.
     -623   -1    0    0    0    0  0.00000000000E+00  0.00000000000E+00  0.42561509872E-11  0.25126700000E+02  0.25126700000E+02 0.  1.
      622    2    1    2    0    0  0.14918323909E-01  0.12269464674E-02  0.11883117042E+02  0.11883882089E+02  0.13401055966E+00 0.  0.
       11    1    1    2    0    0  0.21510847961E-01 -0.60586701830E-01  0.96567749967E-01  0.11601317415E+00  0.51109989000E-03 0. -1.
     -623    1    1    2    0    0 -0.36429171870E-01  0.59359755363E-01  0.20315197586E-01  0.25126804736E+02  0.25126700000E+02 0.  1.
     -611    1    3    3    0    0  0.50619181410E-02 -0.21944584026E-03  0.11752365878E+02  0.11752371225E+02  0.10000000000E-01 0. -1.
      611    1    3    3    0    0  0.98564057679E-02  0.14463923076E-02  0.13075116330E+00  0.13151086453E+00  0.10000000000E-01 0. -1.
</event>
<event>
 7   0  0.6206631E-02  0.9118800E+02  0.7818608E-02  0.1180000E+00
       11   -1    0    0    0    0  0.00000000000E+00  0.00000000000E+00  0.11999999989E+02  0.12000000000E+02  0.51109989000E-03 0. -1.
     -623   -1    0    0    0    0  0.00000000000E+00  0.00000000000E+00  0.42561509872E-11  0.25126700000E+02  0.25126700000E+02 0. -1.
      622    2    1    2    0    0  0.40223393411E-02  0.36541594940E-02  0.11965428616E+02  0.11965950173E+02  0.11158879831E+00 0.  0.
       11    1    1    2    0    0 -0.10294719080E-02  0.17487683270E-02  0.33984692424E-01  0.34049060858E-01  0.51109989000E-03 0. -1.
     -623    1    1    2    0    0 -0.29928674331E-02 -0.54029278209E-02  0.58668111373E-03  0.25126700766E+02  0.25126700000E+02 0. -1.
     -611    1    3    3    0    0  0.43365506917E-01 -0.13370341349E-01  0.95971276120E+01  0.95972401103E+01  0.10000000000E-01 0. -1.
      611    1    3    3    0    0 -0.39343167576E-01  0.17024500843E-01  0.23683010036E+01  0.23687100629E+01  0.10000000000E-01 0.  1.
</event>
<event>
 7   0  0.6206631E-02  0.9118800E+02  0.7818608E-02  0.1180000E+00
       11   -1    0    0    0    0  0.00000000000E+00  0.00000000000E+00  0.11999999989E+02  0.12000000000E+02  0.51109989000E-03 0. -1.
     -623   -1    0    0    0    0  0.00000000000E+00  0.00000000000E+00  0.42561509872E-11  0.25126700000E+02  0.25126700000E+02 0.  1.
      622    2    1    2    0    0 -0.63851192046E-01  0.30684336077E-01  0.11541247704E+02  0.11542003522E+02  0.11148198657E+00 0.  0.
       11    1    1    2    0    0  0.49193974814E-01 -0.18037113478E-01  0.45498135912E+00  0.45798873675E+00  0.51109989000E-03 0. -1.
     -623    1    1    2    0    0  0.14657217232E-01 -0.12647222599E-01  0.37709256309E-02  0.25126707741E+02  0.25126700000E+02 0.  1.
     -611    1    3    3    0    0 -0.64682599279E-02  0.10962081792E-01  0.22220973223E+00  0.22279849802E+00  0.10000000000E-01 0. -1.
      611    1    3    3    0    0 -0.57382932118E-01  0.19722254285E-01  0.11319037972E+02  0.11319205024E+02  0.10000000000E-01 0. -1.
</event>
<event>
 7   0  0.6206631E-02  0.9118800E+02  0.7818608E-02  0.1180000E+00
       11   -1    0    0    0    0  0.00000000000E+00  0.00000000000E+00  0.11999999989E+02  0.12000000000E+02  0.51109989000E-03 0.  1.
     -623   -1    0    0    0    0  0.00000000000E+00  0.00000000000E+00  0.42561509872E-11  0.25126700000E+02  0.25126700000E+02 0. -1.
      622    2    1    2    0    0 -0.35811984112E-01 -0.22359050128E-01  0.62850185392E+01  0.62858676529E+01  0.94295733989E-01 0.  0.
       11    1    1    2    0    0  0.38369943712E-01  0.21447368694E-01  0.57139630786E+01  0.57141321797E+01  0.51109989000E-03 0.  1.
     -623    1    1    2    0    0 -0.25579595999E-02  0.91168143367E-03  0.10183712228E-02  0.25126700167E+02  0.25126700000E+02 0. -1.
     -611    1    3    3    0    0 -0.10503604587E-01  0.31220043109E-01  0.36575654879E+01  0.36577274796E+01  0.10000000000E-01 0.  1.
      611    1    3    3    0    0 -0.25308379525E-01 -0.53579093237E-01  0.26274530514E+01  0.26281401733E+01  0.10000000000E-01 0.  1.
</event>
<event>
 7   0  0.6206631E-02  0.9118800E+02  0.7818608E-02  0.1180000E+00
       11   -1    0    0    0    0  0.00000000000E+00  0.00000000000E+00  0.11999999989E+02  0.12000000000E+02  0.51109989000E-03 0.  1.
     -623   -1    0    0    0    0  0.00000000000E+00  0.00000000000E+00  0.42561509872E-11  0.25126700000E+02  0.25126700000E+02 0.  1.
      622    2    1    2    0    0  0.12207222388E-02  0.14023662983E-02  0.11994605422E+02  0.11995162194E+02  0.11555682499E+00 0.  0.
       11    1    1    2    0    0 -0.51682184288E-03 -0.16450153487E-02  0.44910683805E-02  0.48377782733E-02  0.51109989000E-03 0.  1.
     -623    1    1    2    0    0 -0.70390039593E-03  0.24264905039E-03  0.90349852541E-03  0.25126700027E+02  0.25126700000E+02 0.  1.
     -611    1    3    3    0    0 -0.86914458722E-03 -0.28140561351E-01  0.11048700809E+02  0.11048741205E+02  0.10000000000E-01 0.  1.
      611    1    3    3    0    0  0.20898668260E-02  0.29542927649E-01  0.94590461315E+00  0.94642098946E+00  0.10000000000E-01 0. -1.
</event>
<event>
 7   0  0.6206631E-02  0.9118800E+02  0.7818608E-02  0.1180000E+00
       11   -1    0    0    0    0  0.00000000000E+00  0.00000000000E+00  0.11999999989E+02  0.12000000000E+02  0.51109989000E-03 0. -1.
     -623   -1    0    0    0    0  0.00000000000E+00  0.00000000000E+00  0.42561509872E-11  0.25126700000E+02  0.25126700000E+02 0. -1.
      622    2    1    2    0    0  0.27509967801E-01  0.45779154675E-02  0.10567290582E+02  0.10568268958E+02  0.14107009818E+00 0.  0.
       11    1    1    2    0    0 -0.24723363599E-01 -0.43237153955E-02  0.14315107574E+01  0.14317308578E+01  0.51109989000E-03 0. -1.
     -623    1    1    2    0    0 -0.27866042019E-02 -0.25420007200E-03  0.11986500448E-02  0.25126700184E+02  0.25126700000E+02 0. -1.
     -611    1    3    3    0    0 -0.63064741069E-02  0.34069305191E-01  0.94056278760E+01  0.94056970093E+01  0.10000000000E-01 0. -1.
      611    1    3    3    0    0  0.33816441908E-01 -0.29491389723E-01  0.11616627056E+01  0.11625719485E+01  0.10000000000E-01 0.  1.
</event>
<event>
 7   0  0.6206631E-02  0.9118800E+02  0.7818608E-02  0.1180000E+00
       11   -1    0    0    0    0  0.00000000000E+00  0.00000000000E+00  0.11999999989E+02  0.12000000000E+02  0.51109989000E-03 0. -1.
     -623   -1    0    0    0    0  0.00000000000E+00  0.00000000000E+00  0.42561509872E-11  0.25126700000E+02  0.25126700000E+02 0.  1.
      622    2    1    2    0    0  0.16063186444E-02  0.61851387639E-02  0.87212975483E+01  0.87224096495E+01  0.13913422342E+00 0.  0.
       11    1    1    2    0    0 -0.36203537842E-01  0.17933360502E-01  0.32773058563E+01  0.32775549177E+01  0.51109989000E-03 0. -1.
     -623    1    1    2    0    0  0.34597219197E-01 -0.24118499266E-01  0.13965845565E-02  0.25126735433E+02  0.25126700000E+02 0.  1.
     -611    1    3    3    0    0 -0.21703011356E-01  0.43541411688E-01  0.76496854194E+01  0.76498466580E+01  0.10000000000E-01 0. -1.
      611    1    3    3    0    0  0.23309330000E-01 -0.37356272924E-01  0.10716121288E+01  0.10725629915E+01  0.10000000000E-01 0.  1.
</event>
<event>
 7   0  0.6206631E-02  0.9118800E+02  0.7818608E-02  0.1180000E+00
       11   -1    0    0    0    0  0.00000000000E+00  0.00000000000E+00  0.11999999989E+02  0.12000000000E+02  0.51109989000E-03 0. -1.
     -623   -1    0    0    0    0  0.00000000000E+00  0.00000000000E+00  0.42561509872E-11  0.25126700000E+02  0.25126700000E+02 0.  1.
      622    2    1    2    0    0  0.27611308351E-01 -0.55892582771E-02  0.11372532812E+02  0.11372626277E+02  0.36499920263E-01 0.  0.
       11    1    1    2    0    0 -0.24817607267E-01  0.68613927530E-02  0.62684470969E+00  0.62737352800E+00  0.51109989000E-03 0. -1.
     -623    1    1    2    0    0 -0.27937010836E-02 -0.12721344759E-02  0.62246729809E-03  0.25126700195E+02  0.25126700000E+02 0.  1.
     -611    1    3    3    0    0  0.53400026729E-02 -0.11116546978E-01  0.21138432625E+01  0.21139028908E+01  0.10000000000E-01 0. -1.
      611    1    3    3    0    0  0.22271305678E-01  0.55272887008E-02  0.92586895498E+01  0.92587233862E+01  0.10000000000E-01 0. -1.
</event>
<event>
 7   0  0.6206631E-02  0.9118800E+02  0.7818608E-02  0.1180000E+00
       11   -1    0    0    0    0  0.00000000000E+00  0.00000000000E+00  0.11999999989E+02  0.12000000000E+02  0.51109989000E-03 0.  1.
     -623   -1    0    0    0    0  0.00000000000E+00  0.00000000000E+00  0.42561509872E-11  0.25126700000E+02  0.25126700000E+02 0. -1.
      622    2    1    2    0    0 -0.79762938949E-01  0.50773822824E-01  0.10636298569E+02  0.10637085135E+02  0.88276848367E-01 0.  0.
       11    1    1    2    0    0  0.11117133523E-01 -0.50909709193E-01  0.13618243266E+01  0.13628210253E+01  0.51109989000E-03 0.  1.
     -623    1    1    2    0    0  0.68645805426E-01  0.13588636926E-03  0.18770932833E-02  0.25126793840E+02  0.25126700000E+02 0. -1.
     -611    1    3    3    0    0 -0.35482560668E-01  0.58866455843E-01  0.85256948928E+01  0.85259778135E+01  0.10000000000E-01 0.  1.
      611    1    3    3    0    0 -0.44280378281E-01 -0.80926330190E-02  0.21106036764E+01  0.21111073212E+01  0.10000000000E-01 0. -1.
</event>
<event>
 7   0  0.6206631E-02  0.9118800E+02  0.7818608E-02  0.1180000E+00
       11   -1    0    0    0    0  0.00000000000E+00  0.00000000000E+00  0.11999999989E+02  0.12000000000E+02  0.51109989000E-03 0.  1.
     -623   -1    0    0    0    0  0.00000000000E+00  0.00000000000E+00  0.42561509872E-11  0.25126700000E+02  0.25126700000E+02 0.  1.
      622    2    1    2    0    0 -0.25482967467E-01 -0.11582341728E-02  0.10856536726E+02  0.10857340492E+02  0.12962314004E+00 0.  0.
       11    1    1    2    0    0  0.24986078184E-01  0.40011309923E-02  0.11423789842E+01  0.11426593184E+01  0.51109989000E-03 0.  1.
     -623    1    1    2    0    0  0.49688928310E-03 -0.28428968194E-02  0.10842786955E-02  0.25126700189E+02  0.25126700000E+02 0.  1.
     -611    1    3    3    0    0 -0.17031967430E-01  0.23455680910E-01  0.61350187061E+00  0.61426769582E+00  0.10000000000E-01 0. -1.
      611    1    3    3    0    0 -0.84510000375E-02 -0.24613915083E-01  0.10243034856E+02  0.10243072797E+02  0.10000000000E-01 0.  1.
</event>
<event>
 7   0  0.6206631E-02  0.9118800E+02  0.7818608E-02  0.1180000E+00
       11   -1    0    0    0    0  0.00000000000E+00  0.00000000000E+00  0.11999999989E+02  0.12000000000E+02  0.51109989000E-03 0. -1.
     -623   -1    0    0    0    0  0.00000000000E+00  0.00000000000E+00  0.42561509872E-11  0.25126700000E+02  0.25126700000E+02 0. -1.
      622    2    1    2    0    0  0.25557784545E-01  0.10932715903E-01  0.11097257265E+02  0.11097833307E+02  0.10960191578E+00 0.  0.
       11    1    1    2    0    0 -0.42354342892E-01  0.15719911575E-01  0.90101483488E+00  0.90214688376E+00  0.51109989000E-03 0. -1.
     -623    1    1    2    0    0  0.16796558346E-01 -0.26652627478E-01  0.17278890601E-02  0.25126719809E+02  0.25126700000E+02 0. -1.
     -611    1    3    3    0    0 -0.14666382690E-02  0.57374668510E-01  0.60191969257E+01  0.60194788507E+01  0.10000000000E-01 0.  1.
      611    1    3    3    0    0  0.27024422814E-01 -0.46441952607E-01  0.50780603395E+01  0.50783544565E+01  0.10000000000E-01 0. -1.
</event>
<event>
 7   0  0.6206631E-02  0.9118800E+02  0.7818608E-02  0.1180000E+00
       11   -1    0    0    0    0  0.00000000000E+00  0.00000000000E+00  0.11999999989E+02  0.12000000000E+02  0.51109989000E-03 0.  1.
     -623   -1    0    0    0    0  0.00000000000E+00  0.00000000000E+00  0.42561509872E-11  0.25126700000E+02  0.25126700000E+02 0. -1.
      622    2    1    2    0    0 -0.54725234415E-02 -0.50679920752E-02  0.11864983648E+02  0.11865030023E+02  0.32323865570E-01 0.  0.
       11    1    1    2    0    0  0.49301803548E-02  0.44705020521E-02  0.13480481381E+00  0.13496996376E+00  0.51109989000E-03 0.  1.
     -623    1    1    2    0    0  0.54234308663E-03  0.59749002303E-03  0.21152732207E-03  0.25126700014E+02  0.25126700000E+02 0. -1.
     -611    1    3    3    0    0 -0.15051756919E-01 -0.22339463491E-02  0.79515530871E+01  0.79515739350E+01  0.10000000000E-01 0.  1.
      611    1    3    3    0    0  0.95792334779E-02 -0.28340457261E-02  0.39134305610E+01  0.39134560876E+01  0.10000000000E-01 0.  1.
</event>
<event>
 7   0  0.6206631E-02  0.9118800E+02  0.7818608E-02  0.1180000E+00
       11   -1    0    0    0    0  0.00000000000E+00  0.00000000000E+00  0.11999999989E+02  0.12000000000E+02  0.51109989000E-03 0. -1.
     -623   -1    0    0    0    0  0.00000000000E+00  0.00000000000E+00  0.42561509872E-11  0.25126700000E+02  0.25126700000E+02 0. -1.
      622    2    1    2    0    0  0.56881739735E-02 -0.16503199124E-02  0.11965049460E+02  0.11965519828E+02  0.10592962064E+00 0.  0.
       11    1    1    2    0    0 -0.41919886098E-02  0.25571063051E-02  0.34124834715E-01  0.34480097573E-01  0.51109989000E-03 0. -1.
     -623    1    1    2    0    0 -0.14961853637E-02 -0.90678639265E-03  0.82569400890E-03  0.25126700074E+02  0.25126700000E+02 0. -1.
     -611    1    3    3    0    0 -0.28225769711E-01  0.18032349929E-01  0.15595707327E+01  0.15599624130E+01  0.10000000000E-01 0.  1.
      611    1    3    3    0    0  0.33913943685E-01 -0.19682669841E-01  0.10405478728E+02  0.10405557415E+02  0.10000000000E-01 0. -1.
</event>
<event>
 7   0  0.6206631E-02  0.9118800E+02  0.7818608E-02  0.1180000E+00
       11   -1    0    0    0    0  0.00000000000E+00  0.00000000000E+00  0.11999999989E+02  0.12000000000E+02  0.51109989000E-03 0. -1.
     -623   -1    0    0    0    0  0.00000000000E+00  0.00000000000E+00  0.42561509872E-11  0.25126700000E+02  0.25126700000E+02 0.  1.
      622    2    1    2    0    0 -0.19187729266E-01 -0.13958458418E-01  0.91535434602E+01  0.91539544876E+01  0.83437851365E-01 0.  0.
       11    1    1    2    0    0  0.23510839783E-01  0.10731896919E-01  0.28459275354E+01  0.28460449278E+01  0.51109989000E-03 0. -1.
     -623    1    1    2    0    0 -0.43231105165E-02  0.32265614992E-02  0.52899353373E-03  0.25126700585E+02  0.25126700000E+02 0.  1.
     -611    1    3    3    0    0 -0.23988596499E-01  0.30879686264E-01  0.39637384828E+01  0.39639439663E+01  0.10000000000E-01 0.  1.
      611    1    3    3    0    0  0.48008672324E-02 -0.44838144683E-01  0.51898049774E+01  0.51900105213E+01  0.10000000000E-01 0. -1.
</event>
<event>
 7   0  0.6206631E-02  0.9118800E+02  0.7818608E-02  0.1180000E+00
       11   -1    0    0    0    0  0.00000000000E+00  0.00000000000E+00  0.11999999989E+02  0.12000000000E+02  0.51109989000E-03 0.  1.
     -623   -1    0    0    0    0  0.00000000000E+00  0.00000000000E+00  0.42561509872E-11  0.25126700000E+02  0.25126700000E+02 0.  1.
      622    2    1    2    0    0 -0.17092829365E-01  0.21760266498E-01  0.11296165931E+02  0.11296464264E+02  0.77294717887E-01 0.  0.
       11    1    1    2    0    0  0.32944873089E-01  0.16302224474E-02  0.70274594270E+00  0.70351982452E+00  0.51109989000E-03 0.  1.
     -623    1    1    2    0    0 -0.15852043724E-01 -0.23390488946E-01  0.10881159204E-02  0.25126715911E+02  0.25126700000E+02 0.  1.
     -611    1    3    3    0    0 -0.40294436732E-01 -0.40585956423E-03  0.84127752837E+01  0.84128777348E+01  0.10000000000E-01 0.  1.
      611    1    3    3    0    0  0.23201607367E-01  0.22166126063E-01  0.28833906468E+01  0.28835865296E+01  0.10000000000E-01 0. -1.
</event>
<event>
 7   0  0.6206631E-02  0.9118800E+02  0.7818608E-02  0.1180000E+00
       11   -1    0    0    0    0  0.00000000000E+00  0.00000000000E+00  0.11999999989E+02  0.12000000000E+02  0.51109989000E-03 0. -1.
     -623   -1    0    0    0    0  0.00000000000E+00  0.00000000000E+00  0.42561509872E-11  0.25126700000E+02  0.25126700000E+02 0. -1.
      622    2    1    2    0    0  0.65071222219E-02 -0.41629842496E-02  0.11893052674E+02  0.11893366744E+02  0.86086776940E-01 0.  0.
       11    1    1    2    0    0 -0.67393713440E-02  0.26039538105E-02  0.10638692830E+00  0.10663320045E+00  0.51109989000E-03 0. -1.
     -623    1    1    2    0    0  0.23224912214E-03  0.15590304391E-02  0.56038718790E-03  0.25126700056E+02  0.25126700000E+02 0. -1.
     -611    1    3    3    0    0 -0.97594820172E-02  0.99462133734E-02  0.50825424411E+00  0.50854355891E+00  0.10000000000E-01 0. -1.
      611    1    3    3    0    0  0.16266604239E-01 -0.14109197623E-01  0.11384798430E+02  0.11384823185E+02  0.10000000000E-01 0. -1.
</event>
<event>
 7   0  0.6206631E-02  0.9118800E+02  0.7818608E-02  0.1180000E+00
       11   -1    0    0    0    0  0.00000000000E+00  0.00000000000E+00  0.11999999989E+02  0.12000000000E+02  0.51109989000E-03 0.  1.
     -623   -1    0    0    0    0  0.00000000000E+00  0.00000000000E+00  0.42561509872E-11  0.25126700000E+02  0.25126700000E+02 0.  1.
      622    2    1    2    0    0 -0.10719852319E-02  0.90085565845E-04  0.11779965608E+02  0.11780080630E+02  0.52045850811E-01 0.  0.
       11    1    1    2    0    0  0.11895791505E-02  0.49017116757E-03  0.21991500489E+00  0.21991936241E+00  0.51109989000E-03 0.  1.
     -623    1    1    2    0    0 -0.11759391861E-03 -0.58025673342E-03  0.11937608307E-03  0.25126700007E+02  0.25126700000E+02 0.  1.
     -611    1    3    3    0    0  0.87228966431E-02 -0.11386463672E-02  0.10856082628E+02  0.10856090798E+02  0.10000000000E-01 0.  1.
      611    1    3    3    0    0 -0.97948818750E-02  0.12287319330E-02  0.92388298030E+00  0.92398983262E+00  0.10000000000E-01 0. -1.
</event>
<event>
 7   0  0.6206631E-02  0.9118800E+02  0.7818608E-02  0.1180000E+00
       11   -1    0    0    0    0  0.00000000000E+00  0.00000000000E+00  0.11999999989E+02  0.12000000000E+02  0.51109989000E-03 0. -1.
     -623   -1    0    0    0    0  0.00000000000E+00  0.00000000000E+00  0.42561509872E-11  0.25126700000E+02  0.25126700000E+02 0.  1.
      622    2    1    2    0    0 -0.28425419728E-02  0.16108764520E-02  0.11975543786E+02  0.11975856727E+02  0.86514179174E-01 0.  0.
       11    1    1    2    0    0 -0.12712094747E-03  0.10120861725E-02  0.24115984994E-01  0.24142958260E-01  0.51109989000E-03 0. -1.
     -623    1    1    2    0    0  0.29696629203E-02 -0.26229626245E-02  0.34021820477E-03  0.25126700315E+02  0.25126700000E+02 0.  1.
     -611    1    3    3    0    0 -0.17436269190E-01 -0.95880591858E-02  0.11222032015E+02  0.11222054113E+02  0.10000000000E-01 0. -1.
      611    1    3    3    0    0  0.14593727217E-01  0.11198935638E-01  0.75351177058E+00  0.75380261437E+00  0.10000000000E-01 0.  1.
</event>
<event>
 7   0  0.6206631E-02  0.9118800E+02  0.7818608E-02  0.1180000E+00
       11   -1    0    0    0    0  0.00000000000E+00  0.00000000000E+00  0.11999999989E+02  0.12000000000E+02  0.51109989000E-03 0.  1.
     -623   -1    0    0    0    0  0.00000000000E+00  0.00000000000E+00  0.42561509872E-11  0.25126700000E+02  0.25126700000E+02 0. -1.
      622    2    1    2    0    0 -0.10539553247E-01 -0.12108436131E-01  0.11881557645E+02  0.11881876038E+02  0.85489260286E-01 0.  0.
       11    1    1    2    0    0  0.78647318179E-02 -0.33411444189E-02  0.11780846433E+00  0.11811906173E+00  0.51109989000E-03 0.  1.
     -623    1    1    2    0    0  0.26748214288E-02  0.15449580550E-01  0.63387956592E-03  0.25126704900E+02  0.25126700000E+02 0. -1.
     -611    1    3    3    0    0 -0.28267377422E-01  0.48668003784E-02  0.16234979540E+01  0.16237821089E+01  0.10000000000E-01 0. -1.
      611    1    3    3    0    0  0.17727824176E-01 -0.16975236510E-01  0.10258059691E+02  0.10258093929E+02  0.10000000000E-01 0.  1.
</event>
<event>
 7   0  0.6206631E-02  0.9118800E+02  0.7818608E-02  0.1180000E+00
       11   -1    0    0    0    0  0.00000000000E+00  0.00000000000E+00  0.11999999989E+02  0.12000000000E+02  0.51109989000E-03 0.  1.
     -623   -1    0    0    0    0  0.00000000000E+00  0.00000000000E+00  0.42561509872E-11  0.25126700000E+02  0.25126700000E+02 0.  1.
      622    2    1    2    0    0 -0.22547955992E-02  0.47466756649E-02  0.11815500118E+02  0.11815994521E+02  0.10796227002E+00 0.  0.
       11    1    1    2    0    0  0.24944032241E-02 -0.35213507640E-02  0.18395412369E+00  0.18400544232E+00  0.51109989000E-03 0.  1.
     -623    1    1    2    0    0 -0.23960762490E-03 -0.12253249009E-02  0.54574706138E-03  0.25126700037E+02  0.25126700000E+02 0.  1.
     -611    1    3    3    0    0  0.14616911022E-01 -0.40836307880E-01  0.85648341821E+01  0.85649498437E+01  0.10000000000E-01 0.  1.
      611    1    3    3    0    0 -0.16871706621E-01  0.45582983545E-01  0.32506659363E+01  0.32510446770E+01  0.10000000000E-01 0. -1.
</event>
<event>
 7   0  0.6206631E-02  0.9118800E+02  0.7818608E-02  0.1180000E+00
       11   -1    0    0    0    0  0.00000000000E+00  0.00000000000E+00  0.11999999989E+02  0.12000000000E+02  0.51109989000E-03 0.  1.
     -623   -1    0    0    0    0  0.00000000000E+00  0.00000000000E+00  0.42561509872E-11  0.25126700000E+02  0.25126700000E+02 0. -1.
      622    2    1    2    0    0  0.27580371146E-02 -0.80605970606E-02  0.11988970957E+02  0.11989432376E+02  0.10484044084E+00 0.  0.
       11    1    1    2    0    0 -0.28433783319E-02 -0.21534860014E-02  0.99321079336E-02  0.10565523813E-01  0.51109989000E-03 0.  1.
     -623    1    1    2    0    0  0.85341217243E-04  0.10214083062E-01  0.10969244139E-02  0.25126702100E+02  0.25126700000E+02 0. -1.
     -611    1    3    3    0    0 -0.20715140222E-01 -0.39701282760E-01  0.96441853228E+01  0.96442944713E+01  0.10000000000E-01 0.  1.
      611    1    3    3    0    0  0.23473177336E-01  0.31640685699E-01  0.23447856340E+01  0.23451379048E+01  0.10000000000E-01 0. -1.
</event>
<event>
 7   0  0.6206631E-02  0.9118800E+02  0.7818608E-02  0.1180000E+00
       11   -1    0    0    0    0  0.00000000000E+00  0.00000000000E+00  0.11999999989E+02  0.12000000000E+02  0.51109989000E-03 0. -1.
     -623   -1    0    0    0    0  0.00000000000E+00  0.00000000000E+00  0.42561509872E-11  0.25126700000E+02  0.25126700000E+02 0.  1.
      622    2    1    2    0    0  0.12988526108E-01  0.61293253655E-01  0.80687298539E+01  0.80696295367E+01  0.10292637971E+00 0.  0.
       11    1    1    2    0    0 -0.13912950900E-01 -0.74092814633E-01  0.39296440332E+01  0.39303671336E+01  0.51109989000E-03 0. -1.
     -623    1    1    2    0    0  0.92442479238E-03  0.12799560978E-01  0.16261019195E-02  0.25126703330E+02  0.25126700000E+02 0.  1.
     -611    1    3    3    0    0 -0.42803958645E-01  0.32566796089E-01  0.29708195690E+01  0.29713232215E+01  0.10000000000E-01 0.  1.
      611    1    3    3    0    0  0.55792484753E-01  0.28726457566E-01  0.50979102849E+01  0.50983063152E+01  0.10000000000E-01 0. -1.
</event>
<event>
 7   0  0.6206631E-02  0.9118800E+02  0.7818608E-02  0.1180000E+00
       11   -1    0    0    0    0  0.00000000000E+00  0.00000000000E+00  0.11999999989E+02  0.12000000000E+02  0.51109989000E-03 0. -1.
     -623   -1    0    0    0    0  0.00000000000E+00  0.00000000000E+00  0.42561509872E-11  0.25126700000E+02  0.25126700000E+02 0. -1.
      622    2    1    2    0    0 -0.54283495767E-01  0.42308391650E-01  0.90852295388E+01  0.90863062121E+01  0.12177071840E+00 0.  0.
       11    1    1    2    0    0 -0.11952964712E-01 -0.23841261558E-01  0.29134775563E+01  0.29135996656E+01  0.51109989000E-03 0. -1.
     -623    1    1    2    0    0  0.66236460479E-01 -0.18467130091E-01  0.12928939504E-02  0.25126794122E+02  0.25126700000E+02 0. -1.
     -611    1    3    3    0    0 -0.25590610333E-02 -0.13160504187E-01  0.18666061849E+00  0.18740846875E+00  0.10000000000E-01 0.  1.
      611    1    3    3    0    0 -0.51724434734E-01  0.55468895837E-01  0.88985689204E+01  0.88988977433E+01  0.10000000000E-01 0. -1.
</event>
<event>
 7   0  0.6206631E-02  0.9118800E+02  0.7818608E-02  0.1180000E+00
       11   -1    0    0    0    0  0.00000000000E+00  0.00000000000E+00  0.11999999989E+02  0.12000000000E+02  0.51109989000E-03 0.  1.
     -623   -1    0    0    0    0  0.00000000000E+00  0.00000000000E+00  0.42561509872E-11  0.25126700000E+02  0.25126700000E+02 0.  1.
      622    2    1    2    0    0 -0.12042036281E-01 -0.16959429471E-01  0.53647410901E+01  0.53651241910E+01  0.60646420270E-01 0.  0.
       11    1    1    2    0    0  0.42710528303E-01 -0.54067988372E-03  0.66347134792E+01  0.66348509926E+01  0.51109989000E-03 0.  1.
     -623    1    1    2    0    0 -0.30668492022E-01  0.17500109355E-01  0.54541979412E-03  0.25126724816E+02  0.25126700000E+02 0.  1.
     -611    1    3    3    0    0 -0.31941836233E-01 -0.19118061198E-01  0.41341686298E+01  0.41343483211E+01  0.10000000000E-01 0.  1.
      611    1    3    3    0    0  0.19899799952E-01  0.21586317270E-02  0.12305724603E+01  0.12307758698E+01  0.10000000000E-01 0.  1.
</event>
<event>
 7   0  0.6206631E-02  0.9118800E+02  0.7818608E-02  0.1180000E+00
       11   -1    0    0    0    0  0.00000000000E+00  0.00000000000E+00  0.11999999989E+02  0.12000000000E+02  0.51109989000E-03 0.  1.
     -623   -1    0    0    0    0  0.00000000000E+00  0.00000000000E+00  0.42561509872E-11  0.25126700000E+02  0.25126700000E+02 0.  1.
      622    2    1    2    0    0  0.36043131883E-01 -0.21211781364E-01  0.11396152947E+02  0.11396572008E+02  0.88331812802E-01 0.  0.
       11    1    1    2    0    0 -0.31778351476E-01  0.29085718547E-01  0.60188638403E+00  0.60342631957E+00  0.51109989000E-03 0.  1.
     -623    1    1    2    0    0 -0.42647804077E-02 -0.78739371833E-02  0.19606584309E-02  0.25126701672E+02  0.25126700000E+02 0.  1.
     -611    1    3    3    0    0  0.43654494387E-01  0.21707486396E-01  0.74361597338E+01  0.74363262782E+01  0.10000000000E-01 0.  1.
      611    1    3    3    0    0 -0.76113625040E-02 -0.42919267760E-01  0.39599932129E+01  0.39602457301E+01  0.10000000000E-01 0. -1.
</event>
<event>
 7   0  0.6206631E-02  0.9118800E+02  0.7818608E-02  0.1180000E+00
       11   -1    0    0    0    0  0.00000000000E+00  0.00000000000E+00  0.11999999989E+02  0.12000000000E+02  0.51109989000E-03 0. -1.
     -623   -1    0    0    0    0  0.00000000000E+00  0.00000000000E+00  0.42561509872E-11  0.25126700000E+02  0.25126700000E+02 0. -1.
      622    2    1    2    0    0  0.15357484037E-01 -0.10922000111E-01  0.10761624416E+02  0.10762247072E+02  0.11422272490E+00 0.  0.
       11    1    1    2    0    0 -0.18408909664E-01  0.12203039243E-01  0.12375555242E+01  0.12377526969E+01  0.51109989000E-03 0. -1.
     -623    1    1    2    0    0  0.30514256276E-02 -0.12810391316E-02  0.82004945723E-03  0.25126700231E+02  0.25126700000E+02 0. -1.
     -611    1    3    3    0    0 -0.69906988483E-02 -0.41407727291E-01  0.92987790599E+01  0.92988792590E+01  0.10000000000E-01 0. -1.
      611    1    3    3    0    0  0.22348182885E-01  0.30485727180E-01  0.14628453556E+01  0.14633678127E+01  0.10000000000E-01 0.  1.
</event>
<event>
 7   0  0.6206631E-02  0.9118800E+02  0.7818608E-02  0.1180000E+00
       11   -1    0    0    0    0  0.00000000000E+00  0.00000000000E+00  0.11999999989E+02  0.12000000000E+02  0.51109989000E-03 0.  1.
     -623   -1    0    0    0    0  0.00000000000E+00  0.00000000000E+00  0.42561509872E-11  0.25126700000E+02  0.25126700000E+02 0.  1.
      622    2    1    2    0    0 -0.62150529101E-02 -0.10125954914E-01  0.11974991353E+02  0.11975593763E+02  0.11952782322E+00 0.  0.
       11    1    1    2    0    0  0.95822068197E-02 -0.16555064491E-03  0.22437397251E-01  0.24403772517E-01  0.51109989000E-03 0.  1.
     -623    1    1    2    0    0 -0.33671539096E-02  0.10291505559E-01  0.25712387751E-02  0.25126702465E+02  0.25126700000E+02 0.  1.
     -611    1    3    3    0    0  0.41721046414E-01  0.93300122925E-02  0.91847147588E+01  0.91848196986E+01  0.10000000000E-01 0.  1.
      611    1    3    3    0    0 -0.47936099324E-01 -0.19455967206E-01  0.27902765942E+01  0.27907740641E+01  0.10000000000E-01 0. -1.
</event>
<event>
 7   0  0.6206631E-02  0.9118800E+02  0.7818608E-02  0.1180000E+00
       11   -1    0    0    0    0  0.00000000000E+00  0.00000000000E+00  0.11999999989E+02  0.12000000000E+02  0.51109989000E-03 0.  1.
     -623   -1    0    0    0    0  0.00000000000E+00  0.00000000000E+00  0.42561509872E-11  0.25126700000E+02  0.25126700000E+02 0.  1.
      622    2    1    2    0    0 -0.28839358852E-01  0.13747407838E-01  0.11521386383E+02  0.11521601708E+02  0.62777700555E-01 0.  0.
       11    1    1    2    0    0  0.38486865104E-02 -0.30912330388E-01  0.47736437880E+00  0.47837997024E+00  0.51109989000E-03 0.  1.
     -623    1    1    2    0    0  0.24990672341E-01  0.17164922549E-01  0.12492276292E-02  0.25126718322E+02  0.25126700000E+02 0.  1.
     -611    1    3    3    0    0  0.70433434073E-02 -0.70983455438E-02  0.69892730815E+01  0.69892873888E+01  0.10000000000E-01 0.  1.
      611    1    3    3    0    0 -0.35882702259E-01  0.20845753382E-01  0.45321133011E+01  0.45323143192E+01  0.10000000000E-01 0.  1.
</event>
<event>
 7   0  0.6206631E-02  0.9118800E+02  0.7818608E-02  0.1180000E+00
       11   -1    0    0    0    0  0.00000000000E+00  0.00000000000E+00  0.11999999989E+02  0.12000000000E+02  0.51109989000E-03 0. -1.
     -623   -1    0    0    0    0  0.00000000000E+00  0.00000000000E+00  0.42561509872E-11  0.25126700000E+02  0.25126700000E+02 0. -1.
      622    2    1    2    0    0  0.25002888403E-02  0.10241980730E-02  0.11489731601E+02  0.11489944950E+02  0.69966991343E-01 0.  0.
       11    1    1    2    0    0 -0.89413350013E-03  0.55802472232E-03  0.51005360287E+00  0.51005494791E+00  0.51109989000E-03 0. -1.
     -623    1    1    2    0    0 -0.16061553402E-02 -0.15822227953E-02  0.21478476515E-03  0.25126700102E+02  0.25126700000E+02 0. -1.
     -611    1    3    3    0    0 -0.71783153005E-02  0.10746581449E-01  0.66733104301E+00  0.66753107657E+00  0.10000000000E-01 0. -1.
      611    1    3    3    0    0  0.96786041408E-02 -0.97223833756E-02  0.10822400558E+02  0.10822413873E+02  0.10000000000E-01 0. -1.
</event>
<event>
 7   0  0.6206631E-02  0.9118800E+02  0.7818608E-02  0.1180000E+00
       11   -1    0    0    0    0  0.00000000000E+00  0.00000000000E+00  0.11999999989E+02  0.12000000000E+02  0.51109989000E-03 0. -1.
     -623   -1    0    0    0    0  0.00000000000E+00  0.00000000000E+00  0.42561509872E-11  0.25126700000E+02  0.25126700000E+02 0. -1.
      622    2    1    2    0    0 -0.30718658519E-02  0.14723601530E-02  0.11265272580E+02  0.11265621623E+02  0.88615061003E-01 0.  0.
       11    1    1    2    0    0  0.50099169251E-02 -0.24574232753E-02  0.73435690195E+00  0.73437828050E+00  0.51109989000E-03 0. -1.
     -623    1    1    2    0    0 -0.19380510732E-02  0.98506312225E-03  0.37050666289E-03  0.25126700097E+02  0.25126700000E+02 0. -1.
     -611    1    3    3    0    0  0.33397643550E-01 -0.77180960105E-03  0.22567967054E+01  0.22570660974E+01  0.10000000000E-01 0.  1.
      611    1    3    3    0    0 -0.36469509402E-01  0.22441697541E-02  0.90084758751E+01  0.90085555253E+01  0.10000000000E-01 0. -1.
</event>
<event>
 7   0  0.6206631E-02  0.9118800E+02  0.7818608E-02  0.1180000E+00
       11   -1    0    0    0    0  0.00000000000E+00  0.00000000000E+00  0.11999999989E+02  0.12000000000E+02  0.51109989000E-03 0.  1.
     -623   -1    0    0    0    0  0.00000000000E+00  0.00000000000E+00  0.42561509872E-11  0.25126700000E+02  0.25126700000E+02 0.  1.
      622    2    1    2    0    0 -0.11249776136E-02  0.26052492839E-03  0.11950840565E+02  0.11951108282E+02  0.79985034184E-01 0.  0.
       11    1    1    2    0    0  0.11016147044E-02 -0.97135959117E-05  0.48876630082E-01  0.48891715460E-01  0.51109989000E-03 0.  1.
     -623    1    1    2    0    0  0.23362909245E-04 -0.25081133248E-03  0.28279356108E-03  0.25126700003E+02  0.25126700000E+02 0.  1.
     -611    1    3    3    0    0  0.45112783154E-02 -0.38034685233E-01  0.65645988790E+01  0.65647182294E+01  0.10000000000E-01 0. -1.
      611    1    3    3    0    0 -0.56362559290E-02  0.38295210161E-01  0.53862416864E+01  0.53863900523E+01  0.10000000000E-01 0.  1.
</event>
<event>
 7   0  0.6206631E-02  0.9118800E+02  0.7818608E-02  0.1180000E+00
       11   -1    0    0    0    0  0.00000000000E+00  0.00000000000E+00  0.11999999989E+02  0.12000000000E+02  0.51109989000E-03 0. -1.
     -623   -1    0    0    0    0  0.00000000000E+00  0.00000000000E+00  0.42561509872E-11  0.25126700000E+02  0.25126700000E+02 0. -1.
      622    2    1    2    0    0 -0.48705800361E-02  0.16716844062E-01  0.11186108077E+02  0.11186341440E+02  0.70126535423E-01 0.  0.
       11    1    1    2    0    0 -0.32853306681E-01 -0.46589047333E-02  0.81295026086E+00  0.81362733054E+00  0.51109989000E-03 0. -1.
     -623    1    1    2    0    0  0.37723886717E-01 -0.12057939328E-01  0.94165115945E-03  0.25126731229E+02  0.25126700000E+02 0. -1.
     -611    1    3    3    0    0  0.27027299859E-01 -0.87862216067E-02  0.44086976996E+01  0.44088006395E+01  0.10000000000E-01 0.  1.
      611    1    3    3    0    0 -0.31897879895E-01  0.25503065668E-01  0.67774103775E+01  0.67775408008E+01  0.10000000000E-01 0. -1.
</event>
<event>
 7   0  0.6206631E-02  0.9118800E+02  0.7818608E-02  0.1180000E+00
       11   -1    0    0    0    0  0.00000000000E+00  0.00000000000E+00  0.11999999989E+02  0.12000000000E+02  0.51109989000E-03 0.  1.
     -623   -1    0    0    0    0  0.00000000000E+00  0.00000000000E+00  0.42561509872E-11  0.25126700000E+02  0.25126700000E+02 0.  1.
      622    2    1    2    0    0  0.74504511862E-01 -0.39301147524E-01  0.72856615337E+01  0.72870292173E+01  0.11329310014E+00 0.  0.
       11    1    1    2    0    0 -0.10832975290E+00  0.27229572290E-01  0.47116210830E+01  0.47129449685E+01  0.51109989000E-03 0.  1.
     -623    1    1    2    0    0  0.33825241043E-01  0.12071575234E-01  0.27173723670E-02  0.25126725814E+02  0.25126700000E+02 0.  1.
     -611    1    3    3    0    0  0.83246141170E-01 -0.21405827787E-01  0.28538113423E+01  0.28551229933E+01  0.10000000000E-01 0. -1.
      611    1    3    3    0    0 -0.87416293078E-02 -0.17895319737E-01  0.44318501915E+01  0.44319062240E+01  0.10000000000E-01 0.  1.
</event>
<event>
 7   0  0.6206631E-02  0.9118800E+02  0.7818608E-02  0.1180000E+00
       11   -1    0    0    0    0  0.00000000000E+00  0.00000000000E+00  0.11999999989E+02  0.12000000000E+02  0.51109989000E-03 0.  1.
     -623   -1    0    0    0    0  0.00000000000E+00  0.00000000000E+00  0.42561509872E-11  0.25126700000E+02  0.25126700000E+02 0. -1.
      622    2    1    2    0    0 -0.26773415245E-01 -0.79915772787E-01  0.93078752596E+01  0.93087184533E+01  0.92704091881E-01 0.  0.
       11    1    1    2    0    0  0.68150305413E-01  0.99043715170E-01  0.26885531523E+01  0.26912399439E+01  0.51109989000E-03 0.  1.
     -623    1    1    2    0    0 -0.41376890168E-01 -0.19127942383E-01  0.35715771972E-02  0.25126741603E+02  0.25126700000E+02 0. -1.
     -611    1    3    3    0    0 -0.31960421330E-01 -0.58480299110E-01  0.28457292329E+01  0.28465270560E+01  0.10000000000E-01 0.  1.
      611    1    3    3    0    0  0.51870060853E-02 -0.21435473677E-01  0.64621460267E+01  0.64621913973E+01  0.10000000000E-01 0. -1.
</event>
<event>
 7   0  0.6206631E-02  0.9118800E+02  0.7818608E-02  0.1180000E+00
       11   -1    0    0    0    0  0.00000000000E+00  0.00000000000E+00  0.11999999989E+02  0.12000000000E+02  0.51109989000E-03 0.  1.
     -623   -1    0    0    0    0  0.00000000000E+00  0.00000000000E+00  0.42561509872E-11  0.25126700000E+02  0.25126700000E+02 0.  1.
      622    2    1    2    0    0  0.44813195909E-01 -0.29110521663E-01  0.10808337819E+02  0.10808772533E+02  0.80880342893E-01 0.  0.
       11    1    1    2    0    0 -0.73937939316E-01  0.33258909317E-01  0.11884477784E+01  0.11912100391E+01  0.51109989000E-03 0.  1.
     -623    1    1    2    0    0  0.29124743408E-01 -0.41483876545E-02  0.32143919445E-02  0.25126717428E+02  0.25126700000E+02 0.  1.
     -611    1    3    3    0    0  0.49482879547E-01 -0.47581997503E-01  0.95397908199E+01  0.95400430549E+01  0.10000000000E-01 0.  1.
      611    1    3    3    0    0 -0.46696836389E-02  0.18471475840E-01  0.12685469988E+01  0.12687294785E+01  0.10000000000E-01 0. -1.
</event>
<event>
 7   0  0.6206631E-02  0.9118800E+02  0.7818608E-02  0.1180000E+00
       11   -1    0    0    0    0  0.00000000000E+00  0.00000000000E+00  0.11999999989E+02  0.12000000000E+02  0.51109989000E-03 0.  1.
     -623   -1    0    0    0    0  0.00000000000E+00  0.00000000000E+00  0.42561509872E-11  0.25126700000E+02  0.25126700000E+02 0.  1.
      622    2    1    2    0    0 -0.28031200587E-01  0.41600166349E-01  0.77542183486E+01  0.77548065668E+01  0.81279577429E-01 0.  0.
       11    1    1    2    0    0  0.16421823656E-01 -0.26752976666E-01  0.42450702616E+01  0.42451863546E+01  0.51109989000E-03 0.  1.
     -623    1    1    2    0    0  0.11609376930E-01 -0.14847189683E-01  0.71137895600E-03  0.25126707079E+02  0.25126700000E+02 0.  1.
     -611    1    3    3    0    0  0.10688637900E-01 -0.13787395974E-01  0.33309896824E+01  0.33310503754E+01  0.10000000000E-01 0.  1.
      611    1    3    3    0    0 -0.38719838487E-01  0.55387562322E-01  0.44232286662E+01  0.44237561914E+01  0.10000000000E-01 0. -1.
</event>
<event>
 7   0  0.6206631E-02  0.9118800E+02  0.7818608E-02  0.1180000E+00
       11   -1    0    0    0    0  0.00000000000E+00  0.00000000000E+00  0.11999999989E+02  0.12000000000E+02  0.51109989000E-03 0.  1.
     -623   -1    0    0    0    0  0.00000000000E+00  0.00000000000E+00  0.42561509872E-11  0.25126700000E+02  0.25126700000E+02 0. -1.
      622    2    1    2    0    0 -0.53447988648E-02 -0.53026679392E-02  0.11987258719E+02  0.11987972370E+02  0.13058812455E+00 0.  0.
       11    1    1    2    0    0  0.78323832067E-02 -0.88068381655E-02  0.23120889425E-02  0.12021381103E-01  0.51109989000E-03 0.  1.
     -623    1    1    2    0    0 -0.24875843419E-02  0.14109506105E-01  0.10429181115E-01  0.25126706249E+02  0.25126700000E+02 0. -1.
     -611    1    3    3    0    0  0.19474403224E-01  0.51731365131E-01  0.81763956939E+01  0.81765886487E+01  0.10000000000E-01 0.  1.
      611    1    3    3    0    0 -0.24819202088E-01 -0.57034033070E-01  0.38108630251E+01  0.38113837212E+01  0.10000000000E-01 0. -1.
</event>
<event>
 7   0  0.6206631E-02  0.9118800E+02  0.7818608E-02  0.1180000E+00
       11   -1    0    0    0    0  0.00000000000E+00  0.00000000000E+00  0.11999999989E+02  0.12000000000E+02  0.51109989000E-03 0. -1.
     -623   -1    0    0    0    0  0.00000000000E+00  0.00000000000E+00  0.42561509872E-11  0.25126700000E+02  0.25126700000E+02 0. -1.
      622    2    1    2    0    0 -0.28333575988E-01 -0.18411343450E-01  0.11562687029E+02  0.11563066450E+02  0.87364916840E-01 0.  0.
       11    1    1    2    0    0  0.37304313215E-01  0.21484486430E-01  0.43480547117E+00  0.43693163529E+00  0.51109989000E-03 0. -1.
     -623    1    1    2    0    0 -0.89707372274E-02 -0.30731429804E-02  0.25074887176E-02  0.25126701914E+02  0.25126700000E+02 0. -1.
     -611    1    3    3    0    0 -0.55006653697E-01  0.19097491431E-02  0.56836711555E+01  0.56839464444E+01  0.10000000000E-01 0.  1.
      611    1    3    3    0    0  0.26673077709E-01 -0.20321092593E-01  0.58790158737E+01  0.58791200059E+01  0.10000000000E-01 0. -1.
</event>
<event>
 7   0  0.6206631E-02  0.9118800E+02  0.7818608E-02  0.1180000E+00
       11   -1    0    0    0    0  0.00000000000E+00  0.00000000000E+00  0.11999999989E+02  0.12000000000E+02  0.51109989000E-03 0.  1.
     -623   -1    0    0    0    0  0.00000000000E+00  0.00000000000E+00  0.42561509872E-11  0.25126700000E+02  0.25126700000E+02 0. -1.
      622    2    1    2    0    0 -0.44340168168E-03 -0.11994917822E-02  0.11987725864E+02  0.11988198669E+02  0.10646274641E+00 0.  0.
       11    1    1    2    0    0 -0.57593791642E-03 -0.28815093675E-04  0.11776091761E-01  0.11801275147E-01  0.51109989000E-03 0.  1.
     -623    1    1    2    0    0  0.10193395981E-02  0.12283068759E-02  0.49803375639E-03  0.25126700056E+02  0.25126700000E+02 0. -1.
     -611    1    3    3    0    0 -0.34601496168E-01 -0.25699102254E-01  0.94604047812E+01  0.94605082491E+01  0.10000000000E-01 0.  1.
      611    1    3    3    0    0  0.34158094487E-01  0.24499610472E-01  0.25273210824E+01  0.25276904201E+01  0.10000000000E-01 0.  1.
</event>
<event>
 6   0  0.6206631E-02  0.9118800E+02  0.7818608E-02  0.1180000E+00
       11   -1    0    0    0    0  0.00000000000E+00  0.00000000000E+00  0.11999999989E+02  0.12000000000E+02  0.51109989000E-03 0. -1.
     -623   -1    0    0    0    0  0.00000000000E+00  0.00000000000E+00  0.42561509872E-11  0.25126700000E+02  0.25126700000E+02 0.  1.
       11    1    1    2    0    0  0.11258733112E+00 -0.65741484089E-01  0.23971086758E+01  0.24006516021E+01  0.51109989000E-03 0. -1.
     -623    1    1    2    0    0  0.17978716410E-01  0.16520203961E-01  0.72886258745E-02  0.25126712920E+02  0.25126700000E+02 0.  1.
     -611    1    1    2    0    0 -0.10720063761E+00 -0.52032278135E-01  0.24014430405E+01  0.24044184352E+01  0.10000000000E-01 0.  1.
      611    1    1    2    0    0 -0.23365409915E-01  0.10125355826E+00  0.71941596470E+01  0.71949170427E+01  0.10000000000E-01 0. -1.
</event>
<event>
 7   0  0.6206631E-02  0.9118800E+02  0.7818608E-02  0.1180000E+00
       11   -1    0    0    0    0  0.00000000000E+00  0.00000000000E+00  0.11999999989E+02  0.12000000000E+02  0.51109989000E-03 0. -1.
     -623   -1    0    0    0    0  0.00000000000E+00  0.00000000000E+00  0.42561509872E-11  0.25126700000E+02  0.25126700000E+02 0. -1.
      622    2    1    2    0    0 -0.20710776226E-02  0.53886978922E-04  0.11996102232E+02  0.11996627562E+02  0.11224879047E+00 0.  0.
       11    1    1    2    0    0  0.17002711393E-03  0.56841974579E-03  0.32801704599E-02  0.33723510526E-02  0.51109989000E-03 0. -1.
     -623    1    1    2    0    0  0.19010505087E-02 -0.62230672471E-03  0.61758619413E-03  0.25126700087E+02  0.25126700000E+02 0. -1.
     -611    1    3    3    0    0 -0.39620963906E-02 -0.27231977126E-02  0.11889385698E+02  0.11889390876E+02  0.10000000000E-01 0. -1.
      611    1    3    3    0    0  0.18910187680E-02  0.27770846915E-02  0.10671653397E+00  0.10723668577E+00  0.10000000000E-01 0. -1.
</event>
<event>
 7   0  0.6206631E-02  0.9118800E+02  0.7818608E-02  0.1180000E+00
       11   -1    0    0    0    0  0.00000000000E+00  0.00000000000E+00  0.11999999989E+02  0.12000000000E+02  0.51109989000E-03 0. -1.
     -623   -1    0    0    0    0  0.00000000000E+00  0.00000000000E+00  0.42561509872E-11  0.25126700000E+02  0.25126700000E+02 0.  1.
      622    2    1    2    0    0 -0.83278057575E-02  0.82245388065E-03  0.11955566659E+02  0.11955941911E+02  0.94354766016E-01 0.  0.
       11    1    1    2    0    0  0.48996035345E-02 -0.36331770450E-02  0.43630405739E-01  0.44057685122E-01  0.51109989000E-03 0. -1.
     -623    1    1    2    0    0  0.34282022230E-02  0.28107231643E-02  0.80292479099E-03  0.25126700404E+02  0.25126700000E+02 0.  1.
     -611    1    3    3    0    0  0.26042763142E-01 -0.27948849883E-01  0.81901611875E+01  0.81902563843E+01  0.10000000000E-01 0. -1.
      611    1    3    3    0    0 -0.34370568899E-01  0.28771303763E-01  0.37654054711E+01  0.37656855266E+01  0.10000000000E-01 0.  1.
</event>
<event>
 7   0  0.6206631E-02  0.9118800E+02  0.7818608E-02  0.1180000E+00
       11   -1    0    0    0    0  0.00000000000E+00  0.00000000000E+00  0.11999999989E+02  0.12000000000E+02  0.51109989000E-03 0. -1.
     -623   -1    0    0    0    0  0.00000000000E+00  0.00000000000E+00  0.42561509872E-11  0.25126700000E+02  0.25126700000E+02 0.  1.
      622    2    1    2    0    0 -0.47446504129E-01  0.41590221416E-01  0.11705861611E+02  0.11706682654E+02  0.12345768631E+00 0.  0.
       11    1    1    2    0    0  0.60491522725E-01 -0.20082466281E-01  0.28629385221E+00  0.29330353017E+00  0.51109989000E-03 0. -1.
     -623    1    1    2    0    0 -0.13045018596E-01 -0.21507755135E-01  0.78445264224E-02  0.25126713816E+02  0.25126700000E+02 0.  1.
     -611    1    3    3    0    0 -0.82954793803E-01  0.16363791236E-02  0.76512912773E+01  0.76517476687E+01  0.10000000000E-01 0.  1.
      611    1    3    3    0    0  0.35508289674E-01  0.39953842292E-01  0.40545703332E+01  0.40549349853E+01  0.10000000000E-01 0. -1.
</event>
<event>
 7   0  0.6206631E-02  0.9118800E+02  0.7818608E-02  0.1180000E+00
       11   -1    0    0    0    0  0.00000000000E+00  0.00000000000E+00  0.11999999989E+02  0.12000000000E+02  0.51109989000E-03 0. -1.
     -623   -1    0    0    0    0  0.00000000000E+00  0.00000000000E+00  0.42561509872E-11  0.25126700000E+02  0.25126700000E+02 0. -1.
      622    2    1    2    0    0 -0.16492201379E-02 -0.19160358540E-01  0.87821765108E+01  0.87826071118E+01  0.84814938163E-01 0.  0.
       11    1    1    2    0    0 -0.23967823740E-01 -0.28308614306E-02  0.32172796389E+01  0.32173702004E+01  0.51109989000E-03 0. -1.
     -623    1    1    2    0    0  0.25617043878E-01  0.21991219970E-01  0.54383945957E-03  0.25126722688E+02  0.25126700000E+02 0. -1.
     -611    1    3    3    0    0  0.37912387002E-01 -0.20977159796E-01  0.54220111803E+01  0.54221935257E+01  0.10000000000E-01 0.  1.
      611    1    3    3    0    0 -0.39561607140E-01  0.18168012560E-02  0.33601653305E+01  0.33604135861E+01  0.10000000000E-01 0. -1.
</event>
<event>
 7   0  0.6206631E-02  0.9118800E+02  0.7818608E-02  0.1180000E+00
       11   -1    0    0    0    0  0.00000000000E+00  0.00000000000E+00  0.11999999989E+02  0.12000000000E+02  0.51109989000E-03 0. -1.
     -623   -1    0    0    0    0  0.00000000000E+00  0.00000000000E+00  0.42561509872E-11  0.25126700000E+02  0.25126700000E+02 0.  1.
      622    2    1    2    0    0 -0.41164872415E-02  0.10113177491E-01  0.11961636785E+02  0.11961902570E+02  0.78989184495E-01 0.  0.
       11    1    1    2    0    0  0.49514727312E-02  0.17992265887E-02  0.37725081925E-01  0.38094583971E-01  0.51109989000E-03 0. -1.
     -623    1    1    2    0    0 -0.83498548969E-03 -0.11912404080E-01  0.63812173731E-03  0.25126702846E+02  0.25126700000E+02 0.  1.
     -611    1    3    3    0    0  0.32058280271E-01  0.84765315970E-03  0.31110251839E+01  0.31112065420E+01  0.10000000000E-01 0.  1.
      611    1    3    3    0    0 -0.36174767513E-01  0.92655243317E-02  0.88506116015E+01  0.88506960283E+01  0.10000000000E-01 0. -1.
</event>
<event>
 7   0  0.6206631E-02  0.9118800E+02  0.7818608E-02  0.1180000E+00
       11   -1    0    0    0    0  0.00000000000E+00  0.00000000000E+00  0.11999999989E+02  0.12000000000E+02  0.51109989000E-03 0. -1.
     -623   -1    0    0    0    0  0.00000000000E+00  0.00000000000E+00  0.42561509872E-11  0.25126700000E+02  0.25126700000E+02 0. -1.
      622    2    1    2    0    0  0.27973770124E-01  0.26602863251E-01  0.10539521203E+02  0.10540017636E+02  0.94732992772E-01 0.  0.
       11    1    1    2    0    0 -0.41958521746E-01 -0.24823093606E-01  0.14591641068E+01  0.14599783749E+01  0.51109989000E-03 0. -1.
     -623    1    1    2    0    0  0.13984751622E-01 -0.17797696453E-02  0.13146796912E-02  0.25126703989E+02  0.25126700000E+02 0. -1.
     -611    1    3    3    0    0  0.16710989804E-01 -0.27934246629E-02  0.43719812125E+00  0.43764055756E+00  0.10000000000E-01 0.  1.
      611    1    3    3    0    0  0.11262780320E-01  0.29396287914E-01  0.10102323081E+02  0.10102377078E+02  0.10000000000E-01 0. -1.
</event>
<event>
 7   0  0.6206631E-02  0.9118800E+02  0.7818608E-02  0.1180000E+00
       11   -1    0    0    0    0  0.00000000000E+00  0.00000000000E+00  0.11999999989E+02  0.12000000000E+02  0.51109989000E-03 0.  1.
     -623   -1    0    0    0    0  0.00000000000E+00  0.00000000000E+00  0.42561509872E-11  0.25126700000E+02  0.25126700000E+02 0.  1.
      622    2    1    2    0    0 -0.25035800399E-02 -0.73982614062E-02  0.11253658016E+02  0.11254106235E+02  0.10013703646E+00 0.  0.
       11    1    1    2    0    0  0.44641174590E-02  0.66346458597E-02  0.74585062936E+00  0.74589367165E+00  0.51109989000E-03 0.  1.
     -623    1    1    2    0    0 -0.19605374191E-02  0.76361554648E-03  0.49134422403E-03  0.25126700093E+02  0.25126700000E+02 0.  1.
     -611    1    3    3    0    0 -0.43001812322E-01 -0.29275116689E-01  0.54763085249E+01  0.54765647305E+01  0.10000000000E-01 0.  1.
      611    1    3    3    0    0  0.40498232282E-01  0.21876855283E-01  0.57773494907E+01  0.57775415049E+01  0.10000000000E-01 0.  1.
</event>
<event>
 7   0  0.6206631E-02  0.9118800E+02  0.7818608E-02  0.1180000E+00
       11   -1    0    0    0    0  0.00000000000E+00  0.00000000000E+00  0.11999999989E+02  0.12000000000E+02  0.51109989000E-03 0. -1.
     -623   -1    0    0    0    0  0.00000000000E+00  0.00000000000E+00  0.42561509872E-11  0.25126700000E+02  0.25126700000E+02 0. -1.
      622    2    1    2    0    0  0.24755933957E-01 -0.44073811870E-01  0.99918324658E+01  0.99922434859E+01  0.75222997972E-01 0.  0.
       11    1    1    2    0    0 -0.87879330538E-02  0.13782903978E-01  0.20076665691E+01  0.20077331770E+01  0.51109989000E-03 0. -1.
     -623    1    1    2    0    0 -0.15968000903E-01  0.30290907892E-01  0.50095418522E-03  0.25126723337E+02  0.25126700000E+02 0. -1.
     -611    1    3    3    0    0  0.47566350939E-01 -0.26354322212E-01  0.47477995817E+01  0.47481215207E+01  0.10000000000E-01 0. -1.
      611    1    3    3    0    0 -0.22810416981E-01 -0.17719489659E-01  0.52440328842E+01  0.52441219652E+01  0.10000000000E-01 0.  1.
</event>
<event>
 7   0  0.6206631E-02  0.9118800E+02  0.7818608E-02  0.1180000E+00
       11   -1    0    0    0    0  0.00000000000E+00  0.00000000000E+00  0.11999999989E+02  0.12000000000E+02  0.51109989000E-03 0.  1.
     -623   -1    0    0    0    0  0.00000000000E+00  0.00000000000E+00  0.42561509872E-11  0.25126700000E+02  0.25126700000E+02 0.  1.
      622    2    1    2    0    0 -0.49502739517E-02 -0.29065586132E-02  0.10868509688E+02  0.10868643596E+02  0.53645323999E-01 0.  0.
       11    1    1    2    0    0  0.39129990319E-02  0.29823756390E-02  0.11313455691E+01  0.11313563825E+01  0.51109989000E-03 0.  1.
     -623    1    1    2    0    0  0.10372749198E-02 -0.75817025839E-04  0.14473218070E-03  0.25126700022E+02  0.25126700000E+02 0.  1.
     -611    1    3    3    0    0 -0.10811990792E-01 -0.16311096975E-02  0.86358420887E+00  0.86371132068E+00  0.10000000000E-01 0. -1.
      611    1    3    3    0    0  0.58617168406E-02 -0.12754489157E-02  0.10004925479E+02  0.10004932275E+02  0.10000000000E-01 0.  1.
</event>
<event>
 7   0  0.6206631E-02  0.9118800E+02  0.7818608E-02  0.1180000E+00
       11   -1    0    0    0    0  0.00000000000E+00  0.00000000000E+00  0.11999999989E+02  0.12000000000E+02  0.51109989000E-03 0. -1.
     -623   -1    0    0    0    0  0.00000000000E+00  0.00000000000E+00  0.42561509872E-11  0.25126700000E+02  0.25126700000E+02 0.  1.
      622    2    1    2    0    0  0.63080988438E-02  0.16969210867E-01  0.10518924324E+02  0.10519503128E+02  0.10885485336E+00 0.  0.
       11    1    1    2    0    0 -0.25898479413E-01  0.82446891374E-02  0.14802269784E+01  0.14804765702E+01  0.51109989000E-03 0. -1.
     -623    1    1    2    0    0  0.19590380569E-01 -0.25213900005E-01  0.84868688193E-03  0.25126720302E+02  0.25126700000E+02 0.  1.
     -611    1    3    3    0    0 -0.34655311843E-01  0.43220090063E-01  0.70281733720E+01  0.70283988158E+01  0.10000000000E-01 0. -1.
      611    1    3    3    0    0  0.40963410686E-01 -0.26250879196E-01  0.34907509519E+01  0.34911043121E+01  0.10000000000E-01 0.  1.
</event>
<event>
 7   0  0.6206631E-02  0.9118800E+02  0.7818608E-02  0.1180000E+00
       11   -1    0    0    0    0  0.00000000000E+00  0.00000000000E+00  0.11999999989E+02  0.12000000000E+02  0.51109989000E-03 0. -1.
     -623   -1    0    0    0    0  0.00000000000E+00  0.00000000000E+00  0.42561509872E-11  0.25126700000E+02  0.25126700000E+02 0. -1.
      622    2    1    2    0    0 -0.20585059274E-02  0.10876954434E-03  0.11955537345E+02  0.11956122562E+02  0.11827617127E+00 0.  0.
       11    1    1    2    0    0  0.38648468598E-02  0.24434466498E-02  0.43635336556E-01  0.43877229770E-01  0.51109989000E-03 0. -1.
     -623    1    1    2    0    0 -0.18063409324E-02 -0.25522161942E-02  0.82730717056E-03  0.25126700208E+02  0.25126700000E+02 0. -1.
     -611    1    3    3    0    0 -0.24919787362E-01 -0.21274073450E-01  0.10955150299E+01  0.10960505293E+01  0.10000000000E-01 0.  1.
      611    1    3    3    0    0  0.22861281435E-01  0.21382842994E-01  0.10860022315E+02  0.10860072033E+02  0.10000000000E-01 0. -1.
</event>
<event>
 7   0  0.6206631E-02  0.9118800E+02  0.7818608E-02  0.1180000E+00
       11   -1    0    0    0    0  0.00000000000E+00  0.00000000000E+00  0.11999999989E+02  0.12000000000E+02  0.51109989000E-03 0. -1.
     -623   -1    0    0    0    0  0.00000000000E+00  0.00000000000E+00  0.42561509872E-11  0.25126700000E+02  0.25126700000E+02 0. -1.
      622    2    1    2    0    0  0.39145641234E-02  0.12902282249E-01  0.11974356577E+02  0.11974970916E+02  0.12054545038E+00 0.  0.
       11    1    1    2    0    0 -0.12829682599E-02 -0.10234670638E-01  0.22798624547E-01  0.25028643491E-01  0.51109989000E-03 0. -1.
     -623    1    1    2    0    0 -0.26315958635E-02 -0.26676116110E-02  0.28447871992E-02  0.25126700440E+02  0.25126700000E+02 0. -1.
     -611    1    3    3    0    0  0.27407840872E-01 -0.45771974757E-01  0.41945367306E+01  0.41948879184E+01  0.10000000000E-01 0. -1.
      611    1    3    3    0    0 -0.23493276748E-01  0.58674257006E-01  0.77798198468E+01  0.77800829977E+01  0.10000000000E-01 0. -1.
</event>
<event>
 7   0  0.6206631E-02  0.9118800E+02  0.7818608E-02  0.1180000E+00
       11   -1    0    0    0    0  0.00000000000E+00  0.00000000000E+00  0.11999999989E+02  0.12000000000E+02  0.51109989000E-03 0. -1.
     -623   -1    0    0    0    0  0.00000000000E+00  0.00000000000E+00  0.42561509872E-11  0.25126700000E+02  0.25126700000E+02 0. -1.
      622    2    1    2    0    0 -0.29425880303E-02 -0.27915106848E-03  0.11990974832E+02  0.11991512888E+02  0.11355699986E+00 0.  0.
       11    1    1    2    0    0  0.17384123942E-02 -0.23080327800E-02  0.79635180983E-02  0.84869273955E-02  0.51109989000E-03 0. -1.
     -623    1    1    2    0    0  0.12041756360E-02  0.25871838485E-02  0.10616392099E-02  0.25126700184E+02  0.25126700000E+02 0. -1.
     -611    1    3    3    0    0 -0.13134901616E-01  0.34603204515E-01  0.15637158201E+01  0.15641857541E+01  0.10000000000E-01 0.  1.
      611    1    3    3    0    0  0.10192313586E-01 -0.34882355584E-01  0.10427259012E+02  0.10427327134E+02  0.10000000000E-01 0. -1.
</event>
<event>
 7   0  0.6206631E-02  0.9118800E+02  0.7818608E-02  0.1180000E+00
       11   -1    0    0    0    0  0.00000000000E+00  0.00000000000E+00  0.11999999989E+02  0.12000000000E+02  0.51109989000E-03 0. -1.
     -623   -1    0    0    0    0  0.00000000000E+00  0.00000000000E+00  0.42561509872E-11  0.25126700000E+02  0.25126700000E+02 0.  1.
      622    2    1    2    0    0 -0.17142365153E-02  0.38805799296E-02  0.11051031040E+02  0.11051320199E+02  0.79831635334E-01 0.  0.
       11    1    1    2    0    0 -0.29545392660E-02 -0.65805062428E-02  0.94865165873E+00  0.94867922039E+00  0.51109989000E-03 0. -1.
     -623    1    1    2    0    0  0.46687757813E-02  0.26999263132E-02  0.31729030696E-03  0.25126700581E+02  0.25126700000E+02 0.  1.
     -611    1    3    3    0    0  0.96741490753E-03 -0.29817362908E-01  0.22661154066E+01  0.22663338340E+01  0.10000000000E-01 0.  1.
      611    1    3    3    0    0 -0.26816514228E-02  0.33697942838E-01  0.87849156334E+01  0.87849863647E+01  0.10000000000E-01 0. -1.
</event>
<event>
 7   0  0.6206631E-02  0.9118800E+02  0.7818608E-02  0.1180000E+00
       11   -1    0    0    0    0  0.00000000000E+00  0.00000000000E+00  0.11999999989E+02  0.12000000000E+02  0.51109989000E-03 0. -1.
     -623   -1    0    0    0    0  0.00000000000E+00  0.00000000000E+00  0.42561509872E-11  0.25126700000E+02  0.25126700000E+02 0. -1.
      622    2    1    2    0    0 -0.30742305574E-02  0.91482921061E-02  0.11860736164E+02  0.11861225147E+02  0.10726831963E+00 0.  0.
       11    1    1    2    0    0 -0.94976366967E-03 -0.11845478284E-01  0.13826368311E+00  0.13877436614E+00  0.51109989000E-03 0. -1.
     -623    1    1    2    0    0  0.40239942271E-02  0.26971861784E-02  0.10001419797E-02  0.25126700487E+02  0.25126700000E+02 0. -1.
     -611    1    3    3    0    0  0.15171068150E-01 -0.25475638706E-01  0.10006990848E+02  0.10007039772E+02  0.10000000000E-01 0. -1.
      611    1    3    3    0    0 -0.18245298707E-01  0.34623930812E-01  0.18537453162E+01  0.18541853749E+01  0.10000000000E-01 0. -1.
</event>
<event>
 7   0  0.6206631E-02  0.9118800E+02  0.7818608E-02  0.1180000E+00
       11   -1    0    0    0    0  0.00000000000E+00  0.00000000000E+00  0.11999999989E+02  0.12000000000E+02  0.51109989000E-03 0. -1.
     -623   -1    0    0    0    0  0.00000000000E+00  0.00000000000E+00  0.42561509872E-11  0.25126700000E+02  0.25126700000E+02 0. -1.
      622    2    1    2    0    0  0.87367702309E-01  0.30858927510E-01  0.34540699638E+01  0.34571365451E+01  0.11228707998E+00 0.  0.
       11    1    1    2    0    0 -0.96872211745E-01 -0.43278842397E-01  0.85421993991E+01  0.85428583108E+01  0.51109989000E-03 0. -1.
     -623    1    1    2    0    0  0.95045094358E-02  0.12419914887E-01  0.37306262972E-02  0.25126705144E+02  0.25126700000E+02 0. -1.
     -611    1    3    3    0    0 -0.32728873636E-02  0.46631436976E-01  0.16523914871E+01  0.16530828259E+01  0.10000000000E-01 0. -1.
      611    1    3    3    0    0  0.90640589673E-01 -0.15772509466E-01  0.18016784767E+01  0.18040537192E+01  0.10000000000E-01 0.  1.
</event>
<event>
 7   0  0.6206631E-02  0.9118800E+02  0.7818608E-02  0.1180000E+00
       11   -1    0    0    0    0  0.00000000000E+00  0.00000000000E+00  0.11999999989E+02  0.12000000000E+02  0.51109989000E-03 0.  1.
     -623   -1    0    0    0    0  0.00000000000E+00  0.00000000000E+00  0.42561509872E-11  0.25126700000E+02  0.25126700000E+02 0. -1.
      622    2    1    2    0    0  0.86337057354E-02 -0.93984987914E-02  0.11837831120E+02  0.11837969275E+02  0.55749987070E-01 0.  0.
       11    1    1    2    0    0 -0.92215447408E-02  0.51535235576E-02  0.16168481352E+00  0.16203035468E+00  0.51109989000E-03 0.  1.
     -623    1    1    2    0    0  0.58783900538E-03  0.42449752338E-02  0.48405554863E-03  0.25126700370E+02  0.25126700000E+02 0. -1.
     -611    1    3    3    0    0  0.46023710044E-02 -0.14251167558E-01  0.11273146583E+02  0.11273160966E+02  0.10000000000E-01 0.  1.
      611    1    3    3    0    0  0.40313347310E-02  0.48526687661E-02  0.56468453705E+00  0.56480830946E+00  0.10000000000E-01 0.  1.
</event>
<event>
 7   0  0.6206631E-02  0.9118800E+02  0.7818608E-02  0.1180000E+00
       11   -1    0    0    0    0  0.00000000000E+00  0.00000000000E+00  0.11999999989E+02  0.12000000000E+02  0.51109989000E-03 0. -1.
     -623   -1    0    0    0    0  0.00000000000E+00  0.00000000000E+00  0.42561509872E-11  0.25126700000E+02  0.25126700000E+02 0.  1.
      622    2    1    2    0    0  0.61459460278E-03 -0.18840377689E-02  0.11987842736E+02  0.11988241057E+02  0.97704921224E-01 0.  0.
       11    1    1    2    0    0  0.47266149667E-03  0.10114016976E-02  0.11694620855E-01  0.11758899708E-01  0.51109989000E-03 0. -1.
     -623    1    1    2    0    0 -0.10872560994E-02  0.87263607127E-03  0.46263196181E-03  0.25126700043E+02  0.25126700000E+02 0.  1.
     -611    1    3    3    0    0  0.17487089026E-01 -0.34144276132E-02  0.11478976053E+02  0.11478994237E+02  0.10000000000E-01 0. -1.
      611    1    3    3    0    0 -0.16872494423E-01  0.15303898443E-02  0.50886668303E+00  0.50924682057E+00  0.10000000000E-01 0.  1.
</event>
<event>
 7   0  0.6206631E-02  0.9118800E+02  0.7818608E-02  0.1180000E+00
       11   -1    0    0    0    0  0.00000000000E+00  0.00000000000E+00  0.11999999989E+02  0.12000000000E+02  0.51109989000E-03 0.  1.
     -623   -1    0    0    0    0  0.00000000000E+00  0.00000000000E+00  0.42561509872E-11  0.25126700000E+02  0.25126700000E+02 0.  1.
      622    2    1    2    0    0 -0.11888302382E-02 -0.35011962761E-02  0.11881742792E+02  0.11881872316E+02  0.55356045166E-01 0.  0.
       11    1    1    2    0    0  0.34611768761E-02  0.43646414288E-02  0.11799504483E+00  0.11812756523E+00  0.51109989000E-03 0.  1.
     -623    1    1    2    0    0 -0.22723466378E-02 -0.86344515275E-03  0.26215268408E-03  0.25126700119E+02  0.25126700000E+02 0.  1.
     -611    1    3    3    0    0  0.10185278682E-02 -0.22735011061E-01  0.94280886238E+01  0.94281213938E+01  0.10000000000E-01 0.  1.
      611    1    3    3    0    0 -0.22073581064E-02  0.19233814785E-01  0.24536541679E+01  0.24537509221E+01  0.10000000000E-01 0. -1.
</event>
<event>
 7   0  0.6206631E-02  0.9118800E+02  0.7818608E-02  0.1180000E+00
       11   -1    0    0    0    0  0.00000000000E+00  0.00000000000E+00  0.11999999989E+02  0.12000000000E+02  0.51109989000E-03 0.  1.
     -623   -1    0    0    0    0  0.00000000000E+00  0.00000000000E+00  0.42561509872E-11  0.25126700000E+02  0.25126700000E+02 0. -1.
      622    2    1    2    0    0 -0.46251658779E-02 -0.30672072437E-01  0.98695720279E+01  0.98705256868E+01  0.13365309726E+00 0.  0.
       11    1    1    2    0    0  0.18979226944E-02  0.31408509565E-01  0.21292415780E+01  0.21294741264E+01  0.51109989000E-03 0.  1.
     -623    1    1    2    0    0  0.27272431835E-02 -0.73643712785E-03  0.11863832291E-02  0.25126700187E+02  0.25126700000E+02 0. -1.
     -611    1    3    3    0    0 -0.14328145633E-01 -0.42525187259E-01  0.11304363814E+01  0.11313708939E+01  0.10000000000E-01 0. -1.
      611    1    3    3    0    0  0.97029797548E-02  0.11853114821E-01  0.87391356465E+01  0.87391547928E+01  0.10000000000E-01 0.  1.
</event>
<event>
 7   0  0.6206631E-02  0.9118800E+02  0.7818608E-02  0.1180000E+00
       11   -1    0    0    0    0  0.00000000000E+00  0.00000000000E+00  0.11999999989E+02  0.12000000000E+02  0.51109989000E-03 0. -1.
     -623   -1    0    0    0    0  0.00000000000E+00  0.00000000000E+00  0.42561509872E-11  0.25126700000E+02  0.25126700000E+02 0. -1.
      622    2    1    2    0    0 -0.53235773153E-02 -0.18287587813E-02  0.11891046154E+02  0.11891198391E+02  0.59907044594E-01 0.  0.
       11    1    1    2    0    0  0.36579500979E-02 -0.27209571327E-02  0.10870438205E+00  0.10880114019E+00  0.51109989000E-03 0. -1.
     -623    1    1    2    0    0  0.16656272175E-02  0.45497159140E-02  0.24945266854E-03  0.25126700468E+02  0.25126700000E+02 0. -1.
     -611    1    3    3    0    0  0.47750769399E-02  0.12394892592E-01  0.10343592839E+01  0.10344929013E+01  0.10000000000E-01 0.  1.
      611    1    3    3    0    0 -0.10098654255E-01 -0.14223651374E-01  0.10856686870E+02  0.10856705490E+02  0.10000000000E-01 0. -1.
</event>
<event>
 7   0  0.6206631E-02  0.9118800E+02  0.7818608E-02  0.1180000E+00
       11   -1    0    0    0    0  0.00000000000E+00  0.00000000000E+00  0.11999999989E+02  0.12000000000E+02  0.51109989000E-03 0. -1.
     -623   -1    0    0    0    0  0.00000000000E+00  0.00000000000E+00  0.42561509872E-11  0.25126700000E+02  0.25126700000E+02 0. -1.
      622    2    1    2    0    0 -0.77587441140E-01  0.32309403486E-01  0.98013383955E+01  0.98028831588E+01  0.15238166941E+00 0.  0.
       11    1    1    2    0    0  0.65989918543E-01 -0.46957207656E-01  0.21956163533E+01  0.21971097106E+01  0.51109989000E-03 0. -1.
     -623    1    1    2    0    0  0.11597522598E-01  0.14647804170E-01  0.30452403416E-02  0.25126707131E+02  0.25126700000E+02 0. -1.
     -611    1    3    3    0    0 -0.51270189985E-01  0.25398151028E-01  0.94946699717E+01  0.94948476328E+01  0.10000000000E-01 0. -1.
      611    1    3    3    0    0 -0.26317251156E-01  0.69112524585E-02  0.30666842380E+00  0.30803552600E+00  0.10000000000E-01 0.  1.
</event>
<event>
 7   0  0.6206631E-02  0.9118800E+02  0.7818608E-02  0.1180000E+00
       11   -1    0    0    0    0  0.00000000000E+00  0.00000000000E+00  0.11999999989E+02  0.12000000000E+02  0.51109989000E-03 0.  1.
     -623   -1    0    0    0    0  0.00000000000E+00  0.00000000000E+00  0.42561509872E-11  0.25126700000E+02  0.25126700000E+02 0. -1.
      622    2    1    2    0    0 -0.10205249877E-01  0.78793309025E-02  0.11971720007E+02  0.11971999143E+02  0.80729941656E-01 0.  0.
       11    1    1    2    0    0 -0.13752113299E-02 -0.64662733466E-03  0.27951200257E-01  0.27997145427E-01  0.51109989000E-03 0.  1.
     -623    1    1    2    0    0  0.11580461207E-01 -0.72327035679E-02  0.32878204232E-03  0.25126703712E+02  0.25126700000E+02 0. -1.
     -611    1    3    3    0    0 -0.38964073113E-01 -0.13225836803E-01  0.49375246576E+01  0.49377062353E+01  0.10000000000E-01 0. -1.
      611    1    3    3    0    0  0.28758823236E-01  0.21105167705E-01  0.70341953491E+01  0.70342929075E+01  0.10000000000E-01 0.  1.
</event>
<event>
 7   0  0.6206631E-02  0.9118800E+02  0.7818608E-02  0.1180000E+00
       11   -1    0    0    0    0  0.00000000000E+00  0.00000000000E+00  0.11999999989E+02  0.12000000000E+02  0.51109989000E-03 0.  1.
     -623   -1    0    0    0    0  0.00000000000E+00  0.00000000000E+00  0.42561509872E-11  0.25126700000E+02  0.25126700000E+02 0.  1.
      622    2    1    2    0    0  0.10748478661E-02  0.55945146245E-02  0.11968217617E+02  0.11968588486E+02  0.94047625894E-01 0.  0.
       11    1    1    2    0    0  0.40853656427E-02  0.57363649384E-03  0.31133926311E-01  0.31410219069E-01  0.51109989000E-03 0.  1.
     -623    1    1    2    0    0 -0.51602135088E-02 -0.61681511184E-02  0.64844580284E-03  0.25126701295E+02  0.25126700000E+02 0.  1.
     -611    1    3    3    0    0  0.11998759573E-01 -0.27642601290E-01  0.16430035887E+01  0.16433103408E+01  0.10000000000E-01 0. -1.
      611    1    3    3    0    0 -0.10923911707E-01  0.33237115915E-01  0.10325214028E+02  0.10325278145E+02  0.10000000000E-01 0.  1.
</event>
<event>
 7   0  0.6206631E-02  0.9118800E+02  0.7818608E-02  0.1180000E+00
       11   -1    0    0    0    0  0.00000000000E+00  0.00000000000E+00  0.11999999989E+02  0.12000000000E+02  0.51109989000E-03 0. -1.
     -623   -1    0    0    0    0  0.00000000000E+00  0.00000000000E+00  0.42561509872E-11  0.25126700000E+02  0.25126700000E+02 0.  1.
      622    2    1    2    0    0 -0.22352894063E+00 -0.52400091666E-01  0.76948137548E+01  0.76991296812E+01  0.11716727365E+00 0.  0.
       11    1    1    2    0    0  0.24991093754E+00  0.42834026063E-01  0.42933712064E+01  0.43008518700E+01  0.51109989000E-03 0. -1.
     -623    1    1    2    0    0 -0.26381996912E-01  0.95660656029E-02  0.11815027900E-01  0.25126718449E+02  0.25126700000E+02 0.  1.
     -611    1    3    3    0    0 -0.23279713488E+00 -0.53811843030E-01  0.67859435680E+01  0.67901561343E+01  0.10000000000E-01 0. -1.
      611    1    3    3    0    0  0.92681942460E-02  0.14117513647E-02  0.90887018678E+00  0.90897354686E+00  0.10000000000E-01 0.  1.
</event>
<event>
 7   0  0.6206631E-02  0.9118800E+02  0.7818608E-02  0.1180000E+00
       11   -1    0    0    0    0  0.00000000000E+00  0.00000000000E+00  0.11999999989E+02  0.12000000000E+02  0.51109989000E-03 0. -1.
     -623   -1    0    0    0    0  0.00000000000E+00  0.00000000000E+00  0.42561509872E-11  0.25126700000E+02  0.25126700000E+02 0. -1.
      622    2    1    2    0    0  0.44512423416E-02  0.28289777075E-02  0.11917288278E+02  0.11917651752E+02  0.92927706839E-01 0.  0.
       11    1    1    2    0    0 -0.53994216681E-02 -0.23648376115E-02  0.82135386586E-01  0.82348218949E-01  0.51109989000E-03 0. -1.
     -623    1    1    2    0    0  0.94817932652E-03 -0.46414009598E-03  0.57632403343E-03  0.25126700029E+02  0.25126700000E+02 0. -1.
     -611    1    3    3    0    0 -0.35312703799E-01 -0.18832129725E-01  0.36431999157E+01  0.36434334442E+01  0.10000000000E-01 0. -1.
      611    1    3    3    0    0  0.39763946141E-01  0.21661107432E-01  0.82740883628E+01  0.82742183081E+01  0.10000000000E-01 0. -1.
</event>
<event>
 7   0  0.6206631E-02  0.9118800E+02  0.7818608E-02  0.1180000E+00
       11   -1    0    0    0    0  0.00000000000E+00  0.00000000000E+00  0.11999999989E+02  0.12000000000E+02  0.51109989000E-03 0.  1.
     -623   -1    0    0    0    0  0.00000000000E+00  0.00000000000E+00  0.42561509872E-11  0.25126700000E+02  0.25126700000E+02 0. -1.
      622    2    1    2    0    0  0.45292605432E-01  0.24622959688E-01  0.62801014247E+01  0.62806263856E+01  0.62738993750E-01 0.  0.
       11    1    1    2    0    0 -0.60371792295E-01 -0.44132756766E-01  0.57188725453E+01  0.57193614945E+01  0.51109989000E-03 0.  1.
     -623    1    1    2    0    0  0.15079186863E-01  0.19509797077E-01  0.10260191219E-02  0.25126712120E+02  0.25126700000E+02 0. -1.
     -611    1    3    3    0    0  0.54371683225E-01  0.95704674455E-02  0.34831218666E+01  0.34835737126E+01  0.10000000000E-01 0.  1.
      611    1    3    3    0    0 -0.90790777921E-02  0.15052492243E-01  0.27969795581E+01  0.27970526730E+01  0.10000000000E-01 0. -1.
</event>
<event>
 7   0  0.6206631E-02  0.9118800E+02  0.7818608E-02  0.1180000E+00
       11   -1    0    0    0    0  0.00000000000E+00  0.00000000000E+00  0.11999999989E+02  0.12000000000E+02  0.51109989000E-03 0. -1.
     -623   -1    0    0    0    0  0.00000000000E+00  0.00000000000E+00  0.42561509872E-11  0.25126700000E+02  0.25126700000E+02 0.  1.
      622    2    1    2    0    0  0.72185589422E-02 -0.10824115035E-01  0.11757793275E+02  0.11758255719E+02  0.10346776721E+00 0.  0.
       11    1    1    2    0    0 -0.10640020976E-01  0.11086403548E-01  0.24125462863E+00  0.24174402877E+00  0.51109989000E-03 0. -1.
     -623    1    1    2    0    0  0.34214620337E-02 -0.26228851300E-03  0.95208528582E-03  0.25126700252E+02  0.25126700000E+02 0.  1.
     -611    1    3    3    0    0 -0.37528924618E-02 -0.32325961017E-01  0.13486165265E+01  0.13490461769E+01  0.10000000000E-01 0. -1.
      611    1    3    3    0    0  0.10971451404E-01  0.21501845982E-01  0.10409176749E+02  0.10409209542E+02  0.10000000000E-01 0. -1.
</event>
<event>
 7   0  0.6206631E-02  0.9118800E+02  0.7818608E-02  0.1180000E+00
       11   -1    0    0    0    0  0.00000000000E+00  0.00000000000E+00  0.11999999989E+02  0.12000000000E+02  0.51109989000E-03 0.  1.
     -623   -1    0    0    0    0  0.00000000000E+00  0.00000000000E+00  0.42561509872E-11  0.25126700000E+02  0.25126700000E+02 0.  1.
      622    2    1    2    0    0  0.37924101382E-01  0.18251492509E-01  0.11482474048E+02  0.11483016234E+02  0.10334504065E+00 0.  0.
       11    1    1    2    0    0 -0.28957373189E-01 -0.16024340189E-01  0.51592134591E+00  0.51698201644E+00  0.51109989000E-03 0.  1.
     -623    1    1    2    0    0 -0.89667281935E-02 -0.22271523191E-02  0.16045948587E-02  0.25126701750E+02  0.25126700000E+02 0.  1.
     -611    1    3    3    0    0  0.61826512921E-01  0.39783709413E-01  0.91225164104E+01  0.91228181456E+01  0.10000000000E-01 0.  1.
      611    1    3    3    0    0 -0.23902411538E-01 -0.21532216905E-01  0.23599576380E+01  0.23601980880E+01  0.10000000000E-01 0. -1.
</event>
<event>
 7   0  0.6206631E-02  0.9118800E+02  0.7818608E-02  0.1180000E+00
       11   -1    0    0    0    0  0.00000000000E+00  0.00000000000E+00  0.11999999989E+02  0.12000000000E+02  0.51109989000E-03 0. -1.
     -623   -1    0    0    0    0  0.00000000000E+00  0.00000000000E+00  0.42561509872E-11  0.25126700000E+02  0.25126700000E+02 0. -1.
      622    2    1    2    0    0  0.36621562975E-02 -0.46642221834E-03  0.11982470063E+02  0.11982866731E+02  0.97430195966E-01 0.  0.
       11    1    1    2    0    0 -0.35374627292E-02  0.26407900341E-02  0.16546793935E-01  0.17133155787E-01  0.51109989000E-03 0. -1.
     -623    1    1    2    0    0 -0.12469356825E-03 -0.21743678158E-02  0.98313217060E-03  0.25126700114E+02  0.25126700000E+02 0. -1.
     -611    1    3    3    0    0  0.46791396830E-01 -0.37969040249E-02  0.81125263325E+01  0.81126683247E+01  0.10000000000E-01 0. -1.
      611    1    3    3    0    0 -0.43129240532E-01  0.33304818066E-02  0.38699437305E+01  0.38701984059E+01  0.10000000000E-01 0.  1.
</event>
<event>
 7   0  0.6206631E-02  0.9118800E+02  0.7818608E-02  0.1180000E+00
       11   -1    0    0    0    0  0.00000000000E+00  0.00000000000E+00  0.11999999989E+02  0.12000000000E+02  0.51109989000E-03 0. -1.
     -623   -1    0    0    0    0  0.00000000000E+00  0.00000000000E+00  0.42561509872E-11  0.25126700000E+02  0.25126700000E+02 0.  1.
      622    2    1    2    0    0 -0.45677648888E-01 -0.39365297454E-01  0.75306050819E+01  0.75318685525E+01  0.12407626051E+00 0.  0.
       11    1    1    2    0    0  0.57869329952E-01  0.41757595298E-01  0.44675583674E+01  0.44681283087E+01  0.51109989000E-03 0. -1.
     -623    1    1    2    0    0 -0.12191681065E-01 -0.23922978440E-02  0.18365398296E-02  0.25126703139E+02  0.25126700000E+02 0.  1.
     -611    1    3    3    0    0  0.99225473585E-02  0.27927078650E-01  0.41629866634E+01  0.41631041710E+01  0.10000000000E-01 0. -1.
      611    1    3    3    0    0 -0.55600196246E-01 -0.67292376103E-01  0.33676184185E+01  0.33687643815E+01  0.10000000000E-01 0.  1.
</event>
<event>
 7   0  0.6206631E-02  0.9118800E+02  0.7818608E-02  0.1180000E+00
       11   -1    0    0    0    0  0.00000000000E+00  0.00000000000E+00  0.11999999989E+02  0.12000000000E+02  0.51109989000E-03 0.  1.
     -623   -1    0    0    0    0  0.00000000000E+00  0.00000000000E+00  0.42561509872E-11  0.25126700000E+02  0.25126700000E+02 0. -1.
      622    2    1    2    0    0 -0.38728200072E-01 -0.60723966130E-01  0.93089401908E+01  0.93097946387E+01  0.10354450655E+00 0.  0.
       11    1    1    2    0    0 -0.26544609459E-01  0.40345415392E-01  0.26896786874E+01  0.26901122786E+01  0.51109989000E-03 0.  1.
     -623    1    1    2    0    0  0.65272809531E-01  0.20378550738E-01  0.13811109329E-02  0.25126793083E+02  0.25126700000E+02 0. -1.
     -611    1    3    3    0    0 -0.57198268128E-01 -0.56123338294E-01  0.40215702664E+01  0.40223809962E+01  0.10000000000E-01 0. -1.
      611    1    3    3    0    0  0.18470068056E-01 -0.46006278361E-02  0.52873699244E+01  0.52874136425E+01  0.10000000000E-01 0.  1.
</event>
<event>
 7   0  0.6206631E-02  0.9118800E+02  0.7818608E-02  0.1180000E+00
       11   -1    0    0    0    0  0.00000000000E+00  0.00000000000E+00  0.11999999989E+02  0.12000000000E+02  0.51109989000E-03 0.  1.
     -623   -1    0    0    0    0  0.00000000000E+00  0.00000000000E+00  0.42561509872E-11  0.25126700000E+02  0.25126700000E+02 0. -1.
      622    2    1    2    0    0  0.16414554706E-02  0.30147059379E-02  0.11905564999E+02  0.11905853116E+02  0.82756826801E-01 0.  0.
       11    1    1    2    0    0  0.28021804267E-02 -0.42029566287E-02  0.94009454876E-01  0.94146459778E-01  0.51109989000E-03 0.  1.
     -623    1    1    2    0    0 -0.44436358973E-02  0.11882506908E-02  0.42553568469E-03  0.25126700425E+02  0.25126700000E+02 0. -1.
     -611    1    3    3    0    0 -0.32818385398E-01  0.22551122181E-01  0.68502515630E+01  0.68503745938E+01  0.10000000000E-01 0. -1.
      611    1    3    3    0    0  0.34459840869E-01 -0.19536416243E-01  0.50553134356E+01  0.50554785218E+01  0.10000000000E-01 0.  1.
</event>
<event>
 7   0  0.6206631E-02  0.9118800E+02  0.7818608E-02  0.1180000E+00
       11   -1    0    0    0    0  0.00000000000E+00  0.00000000000E+00  0.11999999989E+02  0.12000000000E+02  0.51109989000E-03 0.  1.
     -623   -1    0    0    0    0  0.00000000000E+00  0.00000000000E+00  0.42561509872E-11  0.25126700000E+02  0.25126700000E+02 0.  1.
      622    2    1    2    0    0 -0.81899609589E-03  0.72228265948E-03  0.11996193942E+02  0.11996420649E+02  0.73743510177E-01 0.  0.
       11    1    1    2    0    0 -0.15960925727E-02 -0.47454203238E-03  0.31268068003E-02  0.35792241526E-02  0.51109989000E-03 0.  1.
     -623    1    1    2    0    0  0.24150886686E-02 -0.24774062710E-03  0.67924010855E-03  0.25126700126E+02  0.25126700000E+02 0.  1.
     -611    1    3    3    0    0 -0.20750338110E-01  0.27005126569E-01  0.41795799318E+01  0.41797306444E+01  0.10000000000E-01 0.  1.
      611    1    3    3    0    0  0.19931342014E-01 -0.26282843910E-01  0.78166140104E+01  0.78166900050E+01  0.10000000000E-01 0. -1.
</event>
<event>
 7   0  0.6206631E-02  0.9118800E+02  0.7818608E-02  0.1180000E+00
       11   -1    0    0    0    0  0.00000000000E+00  0.00000000000E+00  0.11999999989E+02  0.12000000000E+02  0.51109989000E-03 0.  1.
     -623   -1    0    0    0    0  0.00000000000E+00  0.00000000000E+00  0.42561509872E-11  0.25126700000E+02  0.25126700000E+02 0.  1.
      622    2    1    2    0    0 -0.30991921224E-01 -0.43893261433E-01  0.10228782653E+02  0.10230593438E+02  0.18482533218E+00 0.  0.
       11    1    1    2    0    0  0.64144775505E-01  0.30396283439E-01  0.17679564080E+01  0.17693808544E+01  0.51109989000E-03 0.  1.
     -623    1    1    2    0    0 -0.33152854281E-01  0.13496977994E-01  0.32609280366E-02  0.25126725708E+02  0.25126700000E+02 0.  1.
     -611    1    3    3    0    0 -0.50559761158E-01 -0.65643701214E-01  0.99019127740E+01  0.99022644869E+01  0.10000000000E-01 0.  1.
      611    1    3    3    0    0  0.19567839934E-01  0.21750439780E-01  0.32686987916E+00  0.32832895074E+00  0.10000000000E-01 0. -1.
</event>
<event>
 7   0  0.6206631E-02  0.9118800E+02  0.7818608E-02  0.1180000E+00
       11   -1    0    0    0    0  0.00000000000E+00  0.00000000000E+00  0.11999999989E+02  0.12000000000E+02  0.51109989000E-03 0. -1.
     -623   -1    0    0    0    0  0.00000000000E+00  0.00000000000E+00  0.42561509872E-11  0.25126700000E+02  0.25126700000E+02 0. -1.
      622    2    1    2    0    0 -0.47669030349E-01 -0.21217787416E-01  0.95265316304E+01  0.95270525991E+01  0.84875144854E-01 0.  0.
       11    1    1    2    0    0  0.45571945431E-01  0.17657499963E-01  0.24724639971E+01  0.24729470411E+01  0.51109989000E-03 0. -1.
     -623    1    1    2    0    0  0.20970849179E-02  0.35602874533E-02  0.10043615690E-02  0.25126700360E+02  0.25126700000E+02 0. -1.
     -611    1    3    3    0    0 -0.25133994400E-01  0.16517317574E-02  0.83412610455E+01  0.83413050703E+01  0.10000000000E-01 0. -1.
      611    1    3    3    0    0 -0.22535035949E-01 -0.22869519173E-01  0.11852705849E+01  0.11857475288E+01  0.10000000000E-01 0.  1.
</event>
<event>
 7   0  0.6206631E-02  0.9118800E+02  0.7818608E-02  0.1180000E+00
       11   -1    0    0    0    0  0.00000000000E+00  0.00000000000E+00  0.11999999989E+02  0.12000000000E+02  0.51109989000E-03 0.  1.
     -623   -1    0    0    0    0  0.00000000000E+00  0.00000000000E+00  0.42561509872E-11  0.25126700000E+02  0.25126700000E+02 0. -1.
      622    2    1    2    0    0 -0.44154689941E-01 -0.15444377676E-01  0.63282254016E+01  0.63292387928E+01  0.10314454475E+00 0.  0.
       11    1    1    2    0    0 -0.38772283718E-02  0.17649836095E-01  0.56706863625E+01  0.56707151783E+01  0.51109989000E-03 0.  1.
     -623    1    1    2    0    0  0.48031918312E-01 -0.22054584192E-02  0.10882249870E-02  0.25126746029E+02  0.25126700000E+02 0. -1.
     -611    1    3    3    0    0  0.14820428838E-01  0.74937437087E-02  0.42104322715E+01  0.42104768987E+01  0.10000000000E-01 0.  1.
      611    1    3    3    0    0 -0.58975118778E-01 -0.22938121385E-01  0.21177931301E+01  0.21187618941E+01  0.10000000000E-01 0. -1.
</event>
<event>
 7   0  0.6206631E-02  0.9118800E+02  0.7818608E-02  0.1180000E+00
       11   -1    0    0    0    0  0.00000000000E+00  0.00000000000E+00  0.11999999989E+02  0.12000000000E+02  0.51109989000E-03 0. -1.
     -623   -1    0    0    0    0  0.00000000000E+00  0.00000000000E+00  0.42561509872E-11  0.25126700000E+02  0.25126700000E+02 0.  1.
      622    2    1    2    0    0 -0.51351609296E-02 -0.26440292533E-01  0.10012644614E+02  0.10013763260E+02  0.14723112457E+00 0.  0.
       11    1    1    2    0    0 -0.21974656930E-01 -0.35984145270E-02  0.19860792385E+01  0.19862041277E+01  0.51109989000E-03 0. -1.
     -623    1    1    2    0    0  0.27109817860E-01  0.30038707060E-01  0.12761370243E-02  0.25126732613E+02  0.25126700000E+02 0.  1.
     -611    1    3    3    0    0  0.57077239920E-01 -0.22876003664E-01  0.22506027788E+01  0.22514648545E+01  0.10000000000E-01 0.  1.
      611    1    3    3    0    0 -0.62212400849E-01 -0.35642888692E-02  0.77620418348E+01  0.77622984053E+01  0.10000000000E-01 0. -1.
</event>
<event>
 7   0  0.6206631E-02  0.9118800E+02  0.7818608E-02  0.1180000E+00
       11   -1    0    0    0    0  0.00000000000E+00  0.00000000000E+00  0.11999999989E+02  0.12000000000E+02  0.51109989000E-03 0. -1.
     -623   -1    0    0    0    0  0.00000000000E+00  0.00000000000E+00  0.42561509872E-11  0.25126700000E+02  0.25126700000E+02 0. -1.
      622    2    1    2    0    0  0.37609493667E-02  0.68641678546E-03  0.11693138864E+02  0.11693245826E+02  0.49868373175E-01 0.  0.
       11    1    1    2    0    0 -0.34424733023E-02 -0.16541588851E-02  0.30672994994E+00  0.30675415283E+00  0.51109989000E-03 0. -1.
     -623    1    1    2    0    0 -0.31847606438E-03  0.96774209960E-03  0.13117569216E-03  0.25126700021E+02  0.25126700000E+02 0. -1.
     -611    1    3    3    0    0 -0.10622717730E-01 -0.14207941422E-01  0.84903099419E+01  0.84903343643E+01  0.10000000000E-01 0. -1.
      611    1    3    3    0    0  0.14383667096E-01  0.14894358208E-01  0.32028289216E+01  0.32029114620E+01  0.10000000000E-01 0.  1.
</event>
<event>
 7   0  0.6206631E-02  0.9118800E+02  0.7818608E-02  0.1180000E+00
       11   -1    0    0    0    0  0.00000000000E+00  0.00000000000E+00  0.11999999989E+02  0.12000000000E+02  0.51109989000E-03 0. -1.
     -623   -1    0    0    0    0  0.00000000000E+00  0.00000000000E+00  0.42561509872E-11  0.25126700000E+02  0.25126700000E+02 0.  1.
      622    2    1    2    0    0 -0.80711173996E-02  0.26637769405E-02  0.11977382845E+02  0.11977922596E+02  0.11339161588E+00 0.  0.
       11    1    1    2    0    0  0.44213161173E-02 -0.50047117338E-02  0.21036555250E-01  0.22076980220E-01  0.51109989000E-03 0. -1.
     -623    1    1    2    0    0  0.36498012823E-02  0.23409347933E-02  0.15805888088E-02  0.25126700424E+02  0.25126700000E+02 0.  1.
     -611    1    3    3    0    0 -0.45838798416E-02  0.41755941215E-02  0.11870474039E+02  0.11870479871E+02  0.10000000000E-01 0. -1.
      611    1    3    3    0    0 -0.34872375581E-02 -0.15118171810E-02  0.10690880584E+00  0.10744272512E+00  0.10000000000E-01 0. -1.
</event>
<event>
 7   0  0.6206631E-02  0.9118800E+02  0.7818608E-02  0.1180000E+00
       11   -1    0    0    0    0  0.00000000000E+00  0.00000000000E+00  0.11999999989E+02  0.12000000000E+02  0.51109989000E-03 0. -1.
     -623   -1    0    0    0    0  0.00000000000E+00  0.00000000000E+00  0.42561509872E-11  0.25126700000E+02  0.25126700000E+02 0.  1.
      622    2    1    2    0    0 -0.51098505618E-02  0.14568479941E-02  0.11114244848E+02  0.11114642964E+02  0.93922634980E-01 0.  0.
       11    1    1    2    0    0  0.84017356285E-02  0.45961944359E-03  0.88531661042E+00  0.88535674297E+00  0.51109989000E-03 0. -1.
     -623    1    1    2    0    0 -0.32918850667E-02 -0.19164674377E-02  0.43853104895E-03  0.25126700293E+02  0.25126700000E+02 0.  1.
     -611    1    3    3    0    0 -0.33377937670E-01  0.88461430523E-02  0.18643218568E+01  0.18646684228E+01  0.10000000000E-01 0. -1.
      611    1    3    3    0    0  0.28268087108E-01 -0.73892950582E-02  0.92499229908E+01  0.92499745417E+01  0.10000000000E-01 0.  1.
</event>
<event>
 7   0  0.6206631E-02  0.9118800E+02  0.7818608E-02  0.1180000E+00
       11   -1    0    0    0    0  0.00000000000E+00  0.00000000000E+00  0.11999999989E+02  0.12000000000E+02  0.51109989000E-03 0.  1.
     -623   -1    0    0    0    0  0.00000000000E+00  0.00000000000E+00  0.42561509872E-11  0.25126700000E+02  0.25126700000E+02 0.  1.
      622    2    1    2    0    0 -0.52267428788E-02  0.45169324716E-03  0.11956942951E+02  0.11957446324E+02  0.10959164726E+00 0.  0.
       11    1    1    2    0    0  0.65313674609E-02  0.83361594338E-03  0.42037994772E-01  0.42553588616E-01  0.51109989000E-03 0.  1.
     -623    1    1    2    0    0 -0.13046245821E-02 -0.12853091905E-02  0.10190431256E-02  0.25126700087E+02  0.25126700000E+02 0.  1.
     -611    1    3    3    0    0  0.88581440773E-02 -0.30343480056E-01  0.12341649291E+01  0.12346101675E+01  0.10000000000E-01 0. -1.
      611    1    3    3    0    0 -0.14084886956E-01  0.30795173303E-01  0.10722778022E+02  0.10722836156E+02  0.10000000000E-01 0.  1.
</event>
<event>
 7   0  0.6206631E-02  0.9118800E+02  0.7818608E-02  0.1180000E+00
       11   -1    0    0    0    0  0.00000000000E+00  0.00000000000E+00  0.11999999989E+02  0.12000000000E+02  0.51109989000E-03 0. -1.
     -623   -1    0    0    0    0  0.00000000000E+00  0.00000000000E+00  0.42561509872E-11  0.25126700000E+02  0.25126700000E+02 0.  1.
      622    2    1    2    0    0 -0.10914487751E-02 -0.10220294415E-01  0.11957028331E+02  0.11957612745E+02  0.11777267297E+00 0.  0.
       11    1    1    2    0    0 -0.13917087201E-02  0.92113469343E-02  0.41347500801E-01  0.42387059477E-01  0.51109989000E-03 0. -1.
     -623    1    1    2    0    0  0.24831574952E-02  0.10089474808E-02  0.16241571240E-02  0.25126700195E+02  0.25126700000E+02 0.  1.
     -611    1    3    3    0    0  0.67908353389E-02 -0.19304096498E-01  0.45176947648E+00  0.45234325845E+00  0.10000000000E-01 0.  1.
      611    1    3    3    0    0 -0.78822841140E-02  0.90838020826E-02  0.11505258855E+02  0.11505269487E+02  0.10000000000E-01 0. -1.
</event>
<event>
 7   0  0.6206631E-02  0.9118800E+02  0.7818608E-02  0.1180000E+00
       11   -1    0    0    0    0  0.00000000000E+00  0.00000000000E+00  0.11999999989E+02  0.12000000000E+02  0.51109989000E-03 0.  1.
     -623   -1    0    0    0    0  0.00000000000E+00  0.00000000000E+00  0.42561509872E-11  0.25126700000E+02  0.25126700000E+02 0.  1.
      622    2    1    2    0    0 -0.10363910125E+00  0.22216092031E-01  0.74642750654E+01  0.74655477462E+01  0.88126505969E-01 0.  0.
       11    1    1    2    0    0  0.12618255628E+00 -0.61816942326E-02  0.45326765760E+01  0.45344368398E+01  0.51109989000E-03 0.  1.
     -623    1    1    2    0    0 -0.22543455030E-01 -0.16034397799E-01  0.30483477110E-02  0.25126715414E+02  0.25126700000E+02 0.  1.
     -611    1    3    3    0    0 -0.12749883633E-01  0.28904820710E-01  0.37307530713E+01  0.37309002301E+01  0.10000000000E-01 0. -1.
      611    1    3    3    0    0 -0.90889217613E-01 -0.66887286790E-02  0.37335219941E+01  0.37346475161E+01  0.10000000000E-01 0.  1.
</event>
<event>
 7   0  0.6206631E-02  0.9118800E+02  0.7818608E-02  0.1180000E+00
       11   -1    0    0    0    0  0.00000000000E+00  0.00000000000E+00  0.11999999989E+02  0.12000000000E+02  0.51109989000E-03 0. -1.
     -623   -1    0    0    0    0  0.00000000000E+00  0.00000000000E+00  0.42561509872E-11  0.25126700000E+02  0.25126700000E+02 0.  1.
      622    2    1    2    0    0 -0.24110529947E-02  0.26269474318E-02  0.11967041296E+02  0.11968271366E+02  0.17154994124E+00 0.  0.
       11    1    1    2    0    0  0.36440433453E-02 -0.15085194225E-02  0.31478310988E-01  0.31728535557E-01  0.51109989000E-03 0. -1.
     -623    1    1    2    0    0 -0.12329903505E-02 -0.11184280093E-02  0.14803818698E-02  0.25126700099E+02  0.25126700000E+02 0.  1.
     -611    1    3    3    0    0  0.31523686366E-01  0.66823274512E-01  0.29851213341E+01  0.29860523224E+01  0.10000000000E-01 0.  1.
      611    1    3    3    0    0 -0.33934739361E-01 -0.64196327080E-01  0.89819199621E+01  0.89822190433E+01  0.10000000000E-01 0. -1.
</event>
<event>
 7   0  0.6206631E-02  0.9118800E+02  0.7818608E-02  0.1180000E+00
       11   -1    0    0    0    0  0.00000000000E+00  0.00000000000E+00  0.11999999989E+02  0.12000000000E+02  0.51109989000E-03 0. -1.
     -623   -1    0    0    0    0  0.00000000000E+00  0.00000000000E+00  0.42561509872E-11  0.25126700000E+02  0.25126700000E+02 0. -1.
      622    2    1    2    0    0 -0.77744437318E-02 -0.22386436644E-02  0.11988457624E+02  0.11988900444E+02  0.10272391519E+00 0.  0.
       11    1    1    2    0    0  0.42863350202E-02  0.55325314765E-02  0.85990318603E-02  0.11098925377E-01  0.51109989000E-03 0. -1.
     -623    1    1    2    0    0  0.34881087116E-02 -0.32938878120E-02  0.29433331441E-02  0.25126700630E+02  0.25126700000E+02 0. -1.
     -611    1    3    3    0    0  0.28804924155E-01  0.31722000646E-01  0.32948200481E+01  0.32951138309E+01  0.10000000000E-01 0.  1.
      611    1    3    3    0    0 -0.36579367887E-01 -0.33960644311E-01  0.86936375760E+01  0.86937866133E+01  0.10000000000E-01 0. -1.
</event>
<event>
 7   0  0.6206631E-02  0.9118800E+02  0.7818608E-02  0.1180000E+00
       11   -1    0    0    0    0  0.00000000000E+00  0.00000000000E+00  0.11999999989E+02  0.12000000000E+02  0.51109989000E-03 0.  1.
     -623   -1    0    0    0    0  0.00000000000E+00  0.00000000000E+00  0.42561509872E-11  0.25126700000E+02  0.25126700000E+02 0. -1.
      622    2    1    2    0    0 -0.19940991192E-01 -0.15863803195E-01  0.11342314871E+02  0.11343069694E+02  0.12835164534E+00 0.  0.
       11    1    1    2    0    0  0.25742500304E-01  0.13191401660E-02  0.65641929966E+00  0.65692539503E+00  0.51109989000E-03 0.  1.
     -623    1    1    2    0    0 -0.58015091125E-02  0.14544663029E-01  0.12658186660E-02  0.25126704911E+02  0.25126700000E+02 0. -1.
     -611    1    3    3    0    0 -0.48174516466E-01 -0.39423860910E-02  0.17380968585E+01  0.17387975776E+01  0.10000000000E-01 0.  1.
      611    1    3    3    0    0  0.28233525274E-01 -0.11921417104E-01  0.96042180123E+01  0.96042721161E+01  0.10000000000E-01 0.  1.
</event>
<event>
 7   0  0.6206631E-02  0.9118800E+02  0.7818608E-02  0.1180000E+00
       11   -1    0    0    0    0  0.00000000000E+00  0.00000000000E+00  0.11999999989E+02  0.12000000000E+02  0.51109989000E-03 0.  1.
     -623   -1    0    0    0    0  0.00000000000E+00  0.00000000000E+00  0.42561509872E-11  0.25126700000E+02  0.25126700000E+02 0. -1.
      622    2    1    2    0    0  0.10284222152E-01  0.70504754394E-01  0.10197523096E+02  0.10198331912E+02  0.10686356194E+00 0.  0.
       11    1    1    2    0    0  0.88216150893E-02 -0.65764214462E-01  0.18004379469E+01  0.18016602939E+01  0.51109989000E-03 0.  1.
     -623    1    1    2    0    0 -0.19105837241E-01 -0.47405399323E-02  0.20389465111E-02  0.25126707794E+02  0.25126700000E+02 0. -1.
     -611    1    3    3    0    0  0.31785728520E-01  0.25070437369E-01  0.13150637397E+01  0.13157247048E+01  0.10000000000E-01 0. -1.
      611    1    3    3    0    0 -0.21501506368E-01  0.45434317026E-01  0.88824593560E+01  0.88826072076E+01  0.10000000000E-01 0.  1.
</event>
<event>
 7   0  0.6206631E-02  0.9118800E+02  0.7818608E-02  0.1180000E+00
       11   -1    0    0    0    0  0.00000000000E+00  0.00000000000E+00  0.11999999989E+02  0.12000000000E+02  0.51109989000E-03 0. -1.
     -623   -1    0    0    0    0  0.00000000000E+00  0.00000000000E+00  0.42561509872E-11  0.25126700000E+02  0.25126700000E+02 0. -1.
      622    2    1    2    0    0 -0.12694419263E-01 -0.11999351359E-01  0.10776159117E+02  0.10776311752E+02  0.54630761605E-01 0.  0.
       11    1    1    2    0    0  0.12944791686E-01  0.12011744772E-01  0.12235607101E+01  0.12236882455E+01  0.51109989000E-03 0. -1.
     -623    1    1    2    0    0 -0.25037242258E-03 -0.12393413594E-04  0.28016193208E-03  0.25126700003E+02  0.25126700000E+02 0. -1.
     -611    1    3    3    0    0  0.76557082502E-02  0.15654339366E-01  0.51333917208E+01  0.51334310385E+01  0.10000000000E-01 0.  1.
      611    1    3    3    0    0 -0.20350127513E-01 -0.27653690725E-01  0.56427673963E+01  0.56428807131E+01  0.10000000000E-01 0. -1.
</event>
<event>
 7   0  0.6206631E-02  0.9118800E+02  0.7818608E-02  0.1180000E+00
       11   -1    0    0    0    0  0.00000000000E+00  0.00000000000E+00  0.11999999989E+02  0.12000000000E+02  0.51109989000E-03 0. -1.
     -623   -1    0    0    0    0  0.00000000000E+00  0.00000000000E+00  0.42561509872E-11  0.25126700000E+02  0.25126700000E+02 0. -1.
      622    2    1    2    0    0 -0.19080638843E-01  0.11929982625E-01  0.11598301965E+02  0.11598952675E+02  0.12078200586E+00 0.  0.
       11    1    1    2    0    0  0.21766587983E-01 -0.61957181027E-02  0.40040711460E+00  0.40104649346E+00  0.51109989000E-03 0. -1.
     -623    1    1    2    0    0 -0.26859491402E-02 -0.57342645228E-02  0.12909091382E-02  0.25126700831E+02  0.25126700000E+02 0. -1.
     -611    1    3    3    0    0  0.42733293823E-01  0.34991293227E-01  0.52684213347E+01  0.52687203271E+01  0.10000000000E-01 0.  1.
      611    1    3    3    0    0 -0.61813932665E-01 -0.23061310602E-01  0.63298806306E+01  0.63302323484E+01  0.10000000000E-01 0. -1.
</event>
<event>
 7   0  0.6206631E-02  0.9118800E+02  0.7818608E-02  0.1180000E+00
       11   -1    0    0    0    0  0.00000000000E+00  0.00000000000E+00  0.11999999989E+02  0.12000000000E+02  0.51109989000E-03 0.  1.
     -623   -1    0    0    0    0  0.00000000000E+00  0.00000000000E+00  0.42561509872E-11  0.25126700000E+02  0.25126700000E+02 0.  1.
      622    2    1    2    0    0 -0.30043201437E-02 -0.11661063096E-02  0.11967301992E+02  0.11967746993E+02  0.10315399902E+00 0.  0.
       11    1    1    2    0    0  0.32600327339E-02  0.19861008258E-02  0.32022199553E-01  0.32252982766E-01  0.51109989000E-03 0.  1.
     -623    1    1    2    0    0 -0.25571259025E-03 -0.81999451612E-03  0.67579762474E-03  0.25126700024E+02  0.25126700000E+02 0.  1.
     -611    1    3    3    0    0 -0.16204246620E-01 -0.45457647234E-01  0.82023869890E+01  0.82025350528E+01  0.10000000000E-01 0.  1.
      611    1    3    3    0    0  0.13199926476E-01  0.44291540924E-01  0.37649150030E+01  0.37652119407E+01  0.10000000000E-01 0. -1.
</event>
<event>
 7   0  0.6206631E-02  0.9118800E+02  0.7818608E-02  0.1180000E+00
       11   -1    0    0    0    0  0.00000000000E+00  0.00000000000E+00  0.11999999989E+02  0.12000000000E+02  0.51109989000E-03 0. -1.
     -623   -1    0    0    0    0  0.00000000000E+00  0.00000000000E+00  0.42561509872E-11  0.25126700000E+02  0.25126700000E+02 0. -1.
      622    2    1    2    0    0  0.18484954366E-01  0.50374152180E-02  0.11219064478E+02  0.11219526429E+02  0.99992348499E-01 0.  0.
       11    1    1    2    0    0 -0.20700882518E-01  0.87339819413E-02  0.78014605168E+00  0.78046968689E+00  0.51109989000E-03 0. -1.
     -623    1    1    2    0    0  0.22159281523E-02 -0.13771397159E-01  0.78945976000E-03  0.25126703884E+02  0.25126700000E+02 0. -1.
     -611    1    3    3    0    0  0.57299344006E-01 -0.33698159502E-02  0.52989245774E+01  0.52992448752E+01  0.10000000000E-01 0.  1.
      611    1    3    3    0    0 -0.38814389641E-01  0.84072311682E-02  0.59201399003E+01  0.59202815539E+01  0.10000000000E-01 0. -1.
</event>
<event>
 7   0  0.6206631E-02  0.9118800E+02  0.7818608E-02  0.1180000E+00
       11   -1    0    0    0    0  0.00000000000E+00  0.00000000000E+00  0.11999999989E+02  0.12000000000E+02  0.51109989000E-03 0.  1.
     -623   -1    0    0    0    0  0.00000000000E+00  0.00000000000E+00  0.42561509872E-11  0.25126700000E+02  0.25126700000E+02 0. -1.
      622    2    1    2    0    0 -0.11780989828E-01  0.10286923669E+00  0.73797312141E+01  0.73808122474E+01  0.72358601445E-01 0.  0.
       11    1    1    2    0    0  0.11066555770E-01 -0.10285461371E+00  0.46180290900E+01  0.46191876426E+01  0.51109989000E-03 0.  1.
     -623    1    1    2    0    0  0.71443405845E-03 -0.14622979671E-04  0.22396849812E-02  0.25126700110E+02  0.25126700000E+02 0. -1.
     -611    1    3    3    0    0  0.23734915049E-01  0.77105251614E-01  0.48196436937E+01  0.48203292315E+01  0.10000000000E-01 0.  1.
      611    1    3    3    0    0 -0.35515904877E-01  0.25763985072E-01  0.25600875204E+01  0.25604830159E+01  0.10000000000E-01 0. -1.
</event>
<event>
 7   0  0.6206631E-02  0.9118800E+02  0.7818608E-02  0.1180000E+00
       11   -1    0    0    0    0  0.00000000000E+00  0.00000000000E+00  0.11999999989E+02  0.12000000000E+02  0.51109989000E-03 0. -1.
     -623   -1    0    0    0    0  0.00000000000E+00  0.00000000000E+00  0.42561509872E-11  0.25126700000E+02  0.25126700000E+02 0. -1.
      622    2    1    2    0    0  0.12719024099E-01  0.49584835129E-01  0.11035751872E+02  0.11036420506E+02  0.11017153926E+00 0.  0.
       11    1    1    2    0    0 -0.11360559452E-01 -0.37191347935E-01  0.96279119170E+00  0.96357635852E+00  0.51109989000E-03 0. -1.
     -623    1    1    2    0    0 -0.13584646474E-02 -0.12393487193E-01  0.14569250522E-02  0.25126703135E+02  0.25126700000E+02 0. -1.
     -611    1    3    3    0    0  0.17678068513E-01  0.61764618346E-01  0.10746829752E+02  0.10747026430E+02  0.10000000000E-01 0. -1.
      611    1    3    3    0    0 -0.49590444145E-02 -0.12179783218E-01  0.28892212066E+00  0.28939407570E+00  0.10000000000E-01 0.  1.
</event>
<event>
 7   0  0.6206631E-02  0.9118800E+02  0.7818608E-02  0.1180000E+00
       11   -1    0    0    0    0  0.00000000000E+00  0.00000000000E+00  0.11999999989E+02  0.12000000000E+02  0.51109989000E-03 0.  1.
     -623   -1    0    0    0    0  0.00000000000E+00  0.00000000000E+00  0.42561509872E-11  0.25126700000E+02  0.25126700000E+02 0. -1.
      622    2    1    2    0    0 -0.11993961253E-01  0.36274319824E-01  0.11443390255E+02  0.11443892075E+02  0.10012797419E+00 0.  0.
       11    1    1    2    0    0  0.47739805904E-03  0.21619051434E-01  0.55561769291E+00  0.55603857168E+00  0.51109989000E-03 0.  1.
     -623    1    1    2    0    0  0.11516563194E-01 -0.57893371258E-01  0.99204131278E-03  0.25126769354E+02  0.25126700000E+02 0. -1.
     -611    1    3    3    0    0 -0.31771959798E-01  0.62105515008E-01  0.64273385747E+01  0.64277249246E+01  0.10000000000E-01 0. -1.
      611    1    3    3    0    0  0.19777998545E-01 -0.25831195184E-01  0.50160516802E+01  0.50161671501E+01  0.10000000000E-01 0.  1.
</event>
<event>
 7   0  0.6206631E-02  0.9118800E+02  0.7818608E-02  0.1180000E+00
       11   -1    0    0    0    0  0.00000000000E+00  0.00000000000E+00  0.11999999989E+02  0.12000000000E+02  0.51109989000E-03 0. -1.
     -623   -1    0    0    0    0  0.00000000000E+00  0.00000000000E+00  0.42561509872E-11  0.25126700000E+02  0.25126700000E+02 0. -1.
      622    2    1    2    0    0  0.19034941931E-02 -0.87593178513E-03  0.11927915098E+02  0.11927979685E+02  0.39197022799E-01 0.  0.
       11    1    1    2    0    0 -0.20905237166E-02  0.28997113000E-03  0.71987561134E-01  0.72020306538E-01  0.51109989000E-03 0. -1.
     -623    1    1    2    0    0  0.18702952341E-03  0.58596065516E-03  0.97329931162E-04  0.25126700008E+02  0.25126700000E+02 0. -1.
     -611    1    3    3    0    0 -0.18639924697E-02 -0.27133706813E-02  0.10940328569E+02  0.10940333634E+02  0.10000000000E-01 0. -1.
      611    1    3    3    0    0  0.37674866628E-02  0.18374388961E-02  0.98758652877E+00  0.98764605095E+00  0.10000000000E-01 0. -1.
</event>
<event>
 7   0  0.6206631E-02  0.9118800E+02  0.7818608E-02  0.1180000E+00
       11   -1    0    0    0    0  0.00000000000E+00  0.00000000000E+00  0.11999999989E+02  0.12000000000E+02  0.51109989000E-03 0. -1.
     -623   -1    0    0    0    0  0.00000000000E+00  0.00000000000E+00  0.42561509872E-11  0.25126700000E+02  0.25126700000E+02 0. -1.
      622    2    1    2    0    0  0.61987585514E-02  0.22209152733E-02  0.11383053791E+02  0.11383447913E+02  0.94495647508E-01 0.  0.
       11    1    1    2    0    0 -0.20209950261E-02  0.37099844949E-03  0.61654796667E+00  0.61655160246E+00  0.51109989000E-03 0. -1.
     -623    1    1    2    0    0 -0.41777635252E-02 -0.25919137228E-02  0.39823128883E-03  0.25126700484E+02  0.25126700000E+02 0. -1.
     -611    1    3    3    0    0  0.12545545572E-01 -0.40115115559E-01  0.78775802943E+01  0.78776987697E+01  0.10000000000E-01 0. -1.
      611    1    3    3    0    0 -0.63467870205E-02  0.42336030833E-01  0.35054734969E+01  0.35057491437E+01  0.10000000000E-01 0.  1.
</event>
<event>
 7   0  0.6206631E-02  0.9118800E+02  0.7818608E-02  0.1180000E+00
       11   -1    0    0    0    0  0.00000000000E+00  0.00000000000E+00  0.11999999989E+02  0.12000000000E+02  0.51109989000E-03 0.  1.
     -623   -1    0    0    0    0  0.00000000000E+00  0.00000000000E+00  0.42561509872E-11  0.25126700000E+02  0.25126700000E+02 0. -1.
      622    2    1    2    0    0 -0.13293019082E-01  0.41455911061E-01  0.63469830331E+01  0.63480847397E+01  0.10995882509E+00 0.  0.
       11    1    1    2    0    0  0.87392582389E-01 -0.12351584328E+00  0.56496460051E+01  0.56516717766E+01  0.51109989000E-03 0.  1.
     -623    1    1    2    0    0 -0.74099563308E-01  0.82059932216E-01  0.33709509606E-02  0.25126943484E+02  0.25126700000E+02 0. -1.
     -611    1    3    3    0    0 -0.43495682022E-01 -0.14707471094E-01  0.16858685839E+01  0.16865233666E+01  0.10000000000E-01 0. -1.
      611    1    3    3    0    0  0.30202662941E-01  0.56163382156E-01  0.46611144492E+01  0.46615613731E+01  0.10000000000E-01 0.  1.
</event>
<event>
 7   0  0.6206631E-02  0.9118800E+02  0.7818608E-02  0.1180000E+00
       11   -1    0    0    0    0  0.00000000000E+00  0.00000000000E+00  0.11999999989E+02  0.12000000000E+02  0.51109989000E-03 0. -1.
     -623   -1    0    0    0    0  0.00000000000E+00  0.00000000000E+00  0.42561509872E-11  0.25126700000E+02  0.25126700000E+02 0. -1.
      622    2    1    2    0    0  0.34876855975E-01 -0.10132689335E-01  0.93108607751E+01  0.93117021127E+01  0.11978646051E+00 0.  0.
       11    1    1    2    0    0 -0.50492844935E-01  0.77038096933E-01  0.26866252428E+01  0.26882038338E+01  0.51109989000E-03 0. -1.
     -623    1    1    2    0    0  0.15615988959E-01 -0.66905407598E-01  0.25139711818E-02  0.25126794053E+02  0.25126700000E+02 0. -1.
     -611    1    3    3    0    0  0.29343754211E-01 -0.53301944259E-02  0.92136981522E+01  0.92137518475E+01  0.10000000000E-01 0. -1.
      611    1    3    3    0    0  0.55331017646E-02 -0.48024949092E-02  0.97162622912E-01  0.97950265255E-01  0.10000000000E-01 0. -1.
</event>
<event>
 7   0  0.6206631E-02  0.9118800E+02  0.7818608E-02  0.1180000E+00
       11   -1    0    0    0    0  0.00000000000E+00  0.00000000000E+00  0.11999999989E+02  0.12000000000E+02  0.51109989000E-03 0. -1.
     -623   -1    0    0    0    0  0.00000000000E+00  0.00000000000E+00  0.42561509872E-11  0.25126700000E+02  0.25126700000E+02 0.  1.
      622    2    1    2    0    0  0.25061302909E-01  0.80967913088E-01  0.11083884458E+02  0.11085054377E+02  0.13693794031E+00 0.  0.
       11    1    1    2    0    0 -0.30778641598E-01 -0.47359558028E-01  0.91317706137E+00  0.91492232411E+00  0.51109989000E-03 0. -1.
     -623    1    1    2    0    0  0.57173386892E-02 -0.33608355060E-01  0.29384700383E-02  0.25126723299E+02  0.25126700000E+02 0.  1.
     -611    1    3    3    0    0  0.55911598956E-02  0.11649239860E+00  0.89164986677E+01  0.89172669709E+01  0.10000000000E-01 0.  1.
      611    1    3    3    0    0  0.19470143013E-01 -0.35524485513E-01  0.21673857900E+01  0.21677874062E+01  0.10000000000E-01 0. -1.
</event>
<event>
 7   0  0.6206631E-02  0.9118800E+02  0.7818608E-02  0.1180000E+00
       11   -1    0    0    0    0  0.00000000000E+00  0.00000000000E+00  0.11999999989E+02  0.12000000000E+02  0.51109989000E-03 0. -1.
     -623   -1    0    0    0    0  0.00000000000E+00  0.00000000000E+00  0.42561509872E-11  0.25126700000E+02  0.25126700000E+02 0. -1.
      622    2    1    2    0    0  0.38237806451E-03  0.26504524536E-02  0.11638838597E+02  0.11639090790E+02  0.76572670670E-01 0.  0.
       11    1    1    2    0    0 -0.61585747175E-06 -0.21780944204E-02  0.36090226646E+00  0.36090920085E+00  0.51109989000E-03 0. -1.
     -623    1    1    2    0    0 -0.38176220704E-03 -0.47235803316E-03  0.25912578972E-03  0.25126700009E+02  0.25126700000E+02 0. -1.
     -611    1    3    3    0    0 -0.28073675704E-01 -0.15495124067E-01  0.82720292157E+01  0.82720974109E+01  0.10000000000E-01 0. -1.
      611    1    3    3    0    0  0.28456053768E-01  0.18145576521E-01  0.33668093812E+01  0.33669933796E+01  0.10000000000E-01 0.  1.
</event>
<event>
 7   0  0.6206631E-02  0.9118800E+02  0.7818608E-02  0.1180000E+00
       11   -1    0    0    0    0  0.00000000000E+00  0.00000000000E+00  0.11999999989E+02  0.12000000000E+02  0.51109989000E-03 0.  1.
     -623   -1    0    0    0    0  0.00000000000E+00  0.00000000000E+00  0.42561509872E-11  0.25126700000E+02  0.25126700000E+02 0. -1.
      622    2    1    2    0    0  0.59263630411E-02 -0.20972593191E-01  0.11525783278E+02  0.11526137075E+02  0.87639857944E-01 0.  0.
       11    1    1    2    0    0 -0.46370610802E-02  0.23649024282E-01  0.47324924444E+00  0.47386273041E+00  0.51109989000E-03 0.  1.
     -623    1    1    2    0    0 -0.12893019609E-02 -0.26764310918E-02  0.96746702537E-03  0.25126700194E+02  0.25126700000E+02 0. -1.
     -611    1    3    3    0    0 -0.13545682729E-01  0.23458474323E-01  0.18345933505E+01  0.18348205763E+01  0.10000000000E-01 0. -1.
      611    1    3    3    0    0  0.19472045770E-01 -0.44431067514E-01  0.96911899272E+01  0.96913164991E+01  0.10000000000E-01 0.  1.
</event>
<event>
 7   0  0.6206631E-02  0.9118800E+02  0.7818608E-02  0.1180000E+00
       11   -1    0    0    0    0  0.00000000000E+00  0.00000000000E+00  0.11999999989E+02  0.12000000000E+02  0.51109989000E-03 0.  1.
     -623   -1    0    0    0    0  0.00000000000E+00  0.00000000000E+00  0.42561509872E-11  0.25126700000E+02  0.25126700000E+02 0. -1.
      622    2    1    2    0    0 -0.19456743644E-02  0.11647016070E-02  0.11892658525E+02  0.11892996691E+02  0.89656924848E-01 0.  0.
       11    1    1    2    0    0  0.15090766309E-02 -0.18409044843E-02  0.10697559241E+00  0.10700329358E+00  0.51109989000E-03 0.  1.
     -623    1    1    2    0    0  0.43659773347E-03  0.67620287734E-03  0.36587211405E-03  0.25126700016E+02  0.25126700000E+02 0. -1.
     -611    1    3    3    0    0  0.19801308091E-01  0.38251479123E-01  0.49323028872E+01  0.49325010937E+01  0.10000000000E-01 0.  1.
      611    1    3    3    0    0 -0.21746982455E-01 -0.37086777516E-01  0.69603556374E+01  0.69604955972E+01  0.10000000000E-01 0. -1.
</event>
<event>
 7   0  0.6206631E-02  0.9118800E+02  0.7818608E-02  0.1180000E+00
       11   -1    0    0    0    0  0.00000000000E+00  0.00000000000E+00  0.11999999989E+02  0.12000000000E+02  0.51109989000E-03 0. -1.
     -623   -1    0    0    0    0  0.00000000000E+00  0.00000000000E+00  0.42561509872E-11  0.25126700000E+02  0.25126700000E+02 0. -1.
      622    2    1    2    0    0  0.11451545203E+00  0.28213107947E-01  0.49867182531E+01  0.49887785617E+01  0.81503583587E-01 0.  0.
       11    1    1    2    0    0 -0.57647198153E-01 -0.50344083729E-01  0.70107294339E+01  0.70111472088E+01  0.51109989000E-03 0. -1.
     -623    1    1    2    0    0 -0.56868253875E-01  0.22130975782E-01  0.25523021670E-02  0.25126774230E+02  0.25126700000E+02 0. -1.
     -611    1    3    3    0    0  0.43110200658E-02 -0.14980457877E-01  0.31054389156E+00  0.31109565667E+00  0.10000000000E-01 0.  1.
      611    1    3    3    0    0  0.11020443196E+00  0.43193565824E-01  0.46761743615E+01  0.46776829050E+01  0.10000000000E-01 0. -1.
</event>
<event>
 7   0  0.6206631E-02  0.9118800E+02  0.7818608E-02  0.1180000E+00
       11   -1    0    0    0    0  0.00000000000E+00  0.00000000000E+00  0.11999999989E+02  0.12000000000E+02  0.51109989000E-03 0.  1.
     -623   -1    0    0    0    0  0.00000000000E+00  0.00000000000E+00  0.42561509872E-11  0.25126700000E+02  0.25126700000E+02 0.  1.
      622    2    1    2    0    0 -0.12957392813E-01 -0.19052615607E-01  0.11042991270E+02  0.11043254571E+02  0.72694220639E-01 0.  0.
       11    1    1    2    0    0  0.14632374352E-01  0.19137197147E-01  0.95644189378E+00  0.95674536639E+00  0.51109989000E-03 0.  1.
     -623    1    1    2    0    0 -0.16749815390E-02 -0.84581539454E-04  0.56682577879E-03  0.25126700062E+02  0.25126700000E+02 0.  1.
     -611    1    3    3    0    0  0.69344285436E-02 -0.31593485902E-01  0.94311141294E+01  0.94311748980E+01  0.10000000000E-01 0.  1.
      611    1    3    3    0    0 -0.19891821357E-01  0.12540870294E-01  0.16118771401E+01  0.16120796732E+01  0.10000000000E-01 0. -1.
</event>
<event>
 7   0  0.6206631E-02  0.9118800E+02  0.7818608E-02  0.1180000E+00
       11   -1    0    0    0    0  0.00000000000E+00  0.00000000000E+00  0.11999999989E+02  0.12000000000E+02  0.51109989000E-03 0.  1.
     -623   -1    0    0    0    0  0.00000000000E+00  0.00000000000E+00  0.42561509872E-11  0.25126700000E+02  0.25126700000E+02 0.  1.
      622    2    1    2    0    0 -0.15974476604E-01  0.65919089647E-02  0.11000956389E+02  0.11001292296E+02  0.84214381119E-01 0.  0.
       11    1    1    2    0    0  0.17712755047E-01 -0.51581622738E-02  0.99853705821E+00  0.99870759793E+00  0.51109989000E-03 0.  1.
     -623    1    1    2    0    0 -0.17382784429E-02 -0.14337466910E-02  0.50654151925E-03  0.25126700106E+02  0.25126700000E+02 0.  1.
     -611    1    3    3    0    0  0.90708580659E-02 -0.34370033190E-01  0.47143793339E+01  0.47145239509E+01  0.10000000000E-01 0.  1.
      611    1    3    3    0    0 -0.25045334670E-01  0.40961942155E-01  0.62865770555E+01  0.62867683451E+01  0.10000000000E-01 0. -1.
</event>
<event>
 7   0  0.6206631E-02  0.9118800E+02  0.7818608E-02  0.1180000E+00
       11   -1    0    0    0    0  0.00000000000E+00  0.00000000000E+00  0.11999999989E+02  0.12000000000E+02  0.51109989000E-03 0. -1.
     -623   -1    0    0    0    0  0.00000000000E+00  0.00000000000E+00  0.42561509872E-11  0.25126700000E+02  0.25126700000E+02 0.  1.
      622    2    1    2    0    0  0.38329557476E-01 -0.12946057110E-01  0.62430828363E+01  0.62439888297E+01  0.98368940678E-01 0.  0.
       11    1    1    2    0    0 -0.28117062524E-01 -0.11869958054E-02  0.57559362822E+01  0.57560051011E+01  0.51109989000E-03 0. -1.
     -623    1    1    2    0    0 -0.10212494952E-01  0.14133052916E-01  0.98087063606E-03  0.25126706069E+02  0.25126700000E+02 0.  1.
     -611    1    3    3    0    0  0.20409126601E-01  0.37957780560E-01  0.17042017252E+01  0.17047758931E+01  0.10000000000E-01 0.  1.
      611    1    3    3    0    0  0.17920430875E-01 -0.50903837670E-01  0.45388811111E+01  0.45392129365E+01  0.10000000000E-01 0. -1.
</event>
<event>
 7   0  0.6206631E-02  0.9118800E+02  0.7818608E-02  0.1180000E+00
       11   -1    0    0    0    0  0.00000000000E+00  0.00000000000E+00  0.11999999989E+02  0.12000000000E+02  0.51109989000E-03 0. -1.
     -623   -1    0    0    0    0  0.00000000000E+00  0.00000000000E+00  0.42561509872E-11  0.25126700000E+02  0.25126700000E+02 0. -1.
      622    2    1    2    0    0  0.17735680262E-04 -0.63455025641E-01  0.11731324136E+02  0.11731817315E+02  0.86861870550E-01 0.  0.
       11    1    1    2    0    0 -0.70993888750E-02  0.60796228454E-01  0.26110129338E+00  0.26818040447E+00  0.51109989000E-03 0. -1.
     -623    1    1    2    0    0  0.70816531948E-02  0.26587971865E-02  0.75745593692E-02  0.25126702280E+02  0.25126700000E+02 0. -1.
     -611    1    3    3    0    0 -0.58803697752E-02 -0.37555832231E-01  0.10775931412E+02  0.10776003100E+02  0.10000000000E-01 0. -1.
      611    1    3    3    0    0  0.58981054555E-02 -0.25899193409E-01  0.95539272430E+00  0.95581421495E+00  0.10000000000E-01 0.  1.
</event>
<event>
 7   0  0.6206631E-02  0.9118800E+02  0.7818608E-02  0.1180000E+00
       11   -1    0    0    0    0  0.00000000000E+00  0.00000000000E+00  0.11999999989E+02  0.12000000000E+02  0.51109989000E-03 0. -1.
     -623   -1    0    0    0    0  0.00000000000E+00  0.00000000000E+00  0.42561509872E-11  0.25126700000E+02  0.25126700000E+02 0.  1.
      622    2    1    2    0    0  0.53849607478E-02 -0.17935390718E-03  0.11861268695E+02  0.11861666116E+02  0.96948333882E-01 0.  0.
       11    1    1    2    0    0 -0.40123335832E-02 -0.15757037256E-02  0.13826565718E+00  0.13833378056E+00  0.51109989000E-03 0. -1.
     -623    1    1    2    0    0 -0.13726271646E-02  0.17550576328E-02  0.46563730539E-03  0.25126700103E+02  0.25126700000E+02 0.  1.
     -611    1    3    3    0    0 -0.14195248972E-01 -0.14596116665E-01  0.10937103689E+02  0.10937127212E+02  0.10000000000E-01 0. -1.
      611    1    3    3    0    0  0.19580209720E-01  0.14416762758E-01  0.92416500587E+00  0.92453890439E+00  0.10000000000E-01 0.  1.
</event>
<event>
 7   0  0.6206631E-02  0.9118800E+02  0.7818608E-02  0.1180000E+00
       11   -1    0    0    0    0  0.00000000000E+00  0.00000000000E+00  0.11999999989E+02  0.12000000000E+02  0.51109989000E-03 0.  1.
     -623   -1    0    0    0    0  0.00000000000E+00  0.00000000000E+00  0.42561509872E-11  0.25126700000E+02  0.25126700000E+02 0. -1.
      622    2    1    2    0    0 -0.15449250951E-01 -0.78636652947E-01  0.10481335382E+02  0.10482279178E+02  0.11559835411E+00 0.  0.
       11    1    1    2    0    0  0.10579464807E-01  0.80454228959E-01  0.15155491433E+01  0.15177200911E+01  0.51109989000E-03 0.  1.
     -623    1    1    2    0    0  0.48697861446E-02 -0.18175760120E-02  0.31154640421E-02  0.25126700731E+02  0.25126700000E+02 0. -1.
     -611    1    3    3    0    0 -0.39882014233E-01 -0.93118715334E-01  0.61787830120E+01  0.61796214431E+01  0.10000000000E-01 0.  1.
      611    1    3    3    0    0  0.24432763281E-01  0.14482062387E-01  0.43025523698E+01  0.43026577350E+01  0.10000000000E-01 0. -1.
</event>
<event>
 7   0  0.6206631E-02  0.9118800E+02  0.7818608E-02  0.1180000E+00
       11   -1    0    0    0    0  0.00000000000E+00  0.00000000000E+00  0.11999999989E+02  0.12000000000E+02  0.51109989000E-03 0.  1.
     -623   -1    0    0    0    0  0.00000000000E+00  0.00000000000E+00  0.42561509872E-11  0.25126700000E+02  0.25126700000E+02 0.  1.
      622    2    1    2    0    0 -0.33639578888E-02 -0.13119139917E-01  0.11014271286E+02  0.11014468353E+02  0.64480275856E-01 0.  0.
       11    1    1    2    0    0  0.20440126393E-02  0.12594114058E-01  0.98544887990E+00  0.98553160569E+00  0.51109989000E-03 0.  1.
     -623    1    1    2    0    0  0.13199452494E-02  0.52502585892E-03  0.27982345965E-03  0.25126700042E+02  0.25126700000E+02 0.  1.
     -611    1    3    3    0    0  0.11861751820E-01  0.16847356026E-01  0.71846653955E+01  0.71847018992E+01  0.10000000000E-01 0.  1.
      611    1    3    3    0    0 -0.15225709708E-01 -0.29966495943E-01  0.38296058903E+01  0.38297664535E+01  0.10000000000E-01 0.  1.
</event>
<event>
 7   0  0.6206631E-02  0.9118800E+02  0.7818608E-02  0.1180000E+00
       11   -1    0    0    0    0  0.00000000000E+00  0.00000000000E+00  0.11999999989E+02  0.12000000000E+02  0.51109989000E-03 0. -1.
     -623   -1    0    0    0    0  0.00000000000E+00  0.00000000000E+00  0.42561509872E-11  0.25126700000E+02  0.25126700000E+02 0. -1.
      622    2    1    2    0    0  0.51634441301E-01  0.49335536407E-01  0.11060574873E+02  0.11061224301E+02  0.96262177249E-01 0.  0.
       11    1    1    2    0    0 -0.59732822458E-01 -0.54732080133E-01  0.93527095417E+00  0.93877347087E+00  0.51109989000E-03 0. -1.
     -623    1    1    2    0    0  0.80983811578E-02  0.53965437261E-02  0.41541618750E-02  0.25126702228E+02  0.25126700000E+02 0. -1.
     -611    1    3    3    0    0  0.13481072270E-01 -0.11969509027E-01  0.53508073394E+00  0.53547773090E+00  0.10000000000E-01 0.  1.
      611    1    3    3    0    0  0.38153369030E-01  0.61305045434E-01  0.10525494139E+02  0.10525746570E+02  0.10000000000E-01 0. -1.
</event>
<event>
 7   0  0.6206631E-02  0.9118800E+02  0.7818608E-02  0.1180000E+00
       11   -1    0    0    0    0  0.00000000000E+00  0.00000000000E+00  0.11999999989E+02  0.12000000000E+02  0.51109989000E-03 0. -1.
     -623   -1    0    0    0    0  0.00000000000E+00  0.00000000000E+00  0.42561509872E-11  0.25126700000E+02  0.25126700000E+02 0.  1.
      622    2    1    2    0    0  0.41742724845E-02 -0.10472499218E-01  0.11844763775E+02  0.11844892487E+02  0.54055893977E-01 0.  0.
       11    1    1    2    0    0  0.11250741693E-04  0.97746523133E-02  0.15479800781E+00  0.15510715134E+00  0.51109989000E-03 0. -1.
     -623    1    1    2    0    0 -0.41855232261E-02  0.69784690507E-03  0.43820654062E-03  0.25126700362E+02  0.25126700000E+02 0.  1.
     -611    1    3    3    0    0 -0.14532330475E-01  0.17354843165E-02  0.15782001294E+01  0.15782996702E+01  0.10000000000E-01 0.  1.
      611    1    3    3    0    0  0.18706602960E-01 -0.12207983535E-01  0.10266563645E+02  0.10266592816E+02  0.10000000000E-01 0. -1.
</event>
<event>
 7   0  0.6206631E-02  0.9118800E+02  0.7818608E-02  0.1180000E+00
       11   -1    0    0    0    0  0.00000000000E+00  0.00000000000E+00  0.11999999989E+02  0.12000000000E+02  0.51109989000E-03 0.  1.
     -623   -1    0    0    0    0  0.00000000000E+00  0.00000000000E+00  0.42561509872E-11  0.25126700000E+02  0.25126700000E+02 0.  1.
      622    2    1    2    0    0  0.96694734412E-02 -0.67773757965E-01  0.35792089961E+01  0.35810181041E+01  0.90922180301E-01 0.  0.
       11    1    1    2    0    0 -0.13570821651E-01  0.63822337268E-01  0.84187283296E+01  0.84189811977E+01  0.51109989000E-03 0.  1.
     -623    1    1    2    0    0  0.39013482097E-02  0.39514206967E-02  0.20626633924E-02  0.25126700698E+02  0.25126700000E+02 0.  1.
     -611    1    3    3    0    0 -0.27597314616E-01 -0.44284975195E-01  0.27978688165E+01  0.27983732212E+01  0.10000000000E-01 0. -1.
      611    1    3    3    0    0  0.37266788057E-01 -0.23488782770E-01  0.78134017958E+00  0.78264488284E+00  0.10000000000E-01 0.  1.
</event>
<event>
 7   0  0.6206631E-02  0.9118800E+02  0.7818608E-02  0.1180000E+00
       11   -1    0    0    0    0  0.00000000000E+00  0.00000000000E+00  0.11999999989E+02  0.12000000000E+02  0.51109989000E-03 0. -1.
     -623   -1    0    0    0    0  0.00000000000E+00  0.00000000000E+00  0.42561509872E-11  0.25126700000E+02  0.25126700000E+02 0. -1.
      622    2    1    2    0    0 -0.79430005002E-04  0.11192078838E-02  0.11997186206E+02  0.11997436765E+02  0.77529307714E-01 0.  0.
       11    1    1    2    0    0 -0.41734288412E-03 -0.26391197129E-03  0.24627252200E-02  0.25632134619E-02  0.51109989000E-03 0. -1.
     -623    1    1    2    0    0  0.49677288912E-03 -0.85529591249E-03  0.35105760473E-03  0.25126700022E+02  0.25126700000E+02 0. -1.
     -611    1    3    3    0    0  0.96465188226E-03 -0.34194847062E-01  0.80763567688E+01  0.80764354064E+01  0.10000000000E-01 0.  1.
      611    1    3    3    0    0 -0.10440818873E-02  0.35314054946E-01  0.39208294376E+01  0.39210013582E+01  0.10000000000E-01 0. -1.
</event>
<event>
 7   0  0.6206631E-02  0.9118800E+02  0.7818608E-02  0.1180000E+00
       11   -1    0    0    0    0  0.00000000000E+00  0.00000000000E+00  0.11999999989E+02  0.12000000000E+02  0.51109989000E-03 0. -1.
     -623   -1    0    0    0    0  0.00000000000E+00  0.00000000000E+00  0.42561509872E-11  0.25126700000E+02  0.25126700000E+02 0. -1.
      622    2    1    2    0    0 -0.76523424780E-02  0.13296556012E-01  0.80256720611E+01  0.80261001501E+01  0.81463066324E-01 0.  0.
       11    1    1    2    0    0  0.78109856350E-02 -0.13852835238E-01  0.39738679844E+01  0.39738998391E+01  0.51109989000E-03 0. -1.
     -623    1    1    2    0    0 -0.15864315702E-03  0.55627922569E-03  0.45994373899E-03  0.25126700011E+02  0.25126700000E+02 0. -1.
     -611    1    3    3    0    0  0.29481785473E-01 -0.48821961243E-02  0.17483096223E+01  0.17485935911E+01  0.10000000000E-01 0.  1.
      611    1    3    3    0    0 -0.37134127951E-01  0.18178752137E-01  0.62773624388E+01  0.62775065590E+01  0.10000000000E-01 0. -1.
</event>
<event>
 7   0  0.6206631E-02  0.9118800E+02  0.7818608E-02  0.1180000E+00
       11   -1    0    0    0    0  0.00000000000E+00  0.00000000000E+00  0.11999999989E+02  0.12000000000E+02  0.51109989000E-03 0. -1.
     -623   -1    0    0    0    0  0.00000000000E+00  0.00000000000E+00  0.42561509872E-11  0.25126700000E+02  0.25126700000E+02 0. -1.
      622    2    1    2    0    0  0.25089748741E-02 -0.44830497368E-03  0.11998708026E+02  0.11999080135E+02  0.94463282607E-01 0.  0.
       11    1    1    2    0    0 -0.25830207906E-03  0.70806811415E-03  0.12887901744E-03  0.91973548211E-03  0.51109989000E-03 0. -1.
     -623    1    1    2    0    0 -0.22506727951E-02 -0.25976314047E-03  0.11630842601E-02  0.25126700129E+02  0.25126700000E+02 0. -1.
     -611    1    3    3    0    0  0.82003891440E-02 -0.38607353944E-01  0.29112004275E+01  0.29114851371E+01  0.10000000000E-01 0.  1.
      611    1    3    3    0    0 -0.56914142698E-02  0.38159048971E-01  0.90875075983E+01  0.90875949984E+01  0.10000000000E-01 0. -1.
</event>
<event>
 7   0  0.6206631E-02  0.9118800E+02  0.7818608E-02  0.1180000E+00
       11   -1    0    0    0    0  0.00000000000E+00  0.00000000000E+00  0.11999999989E+02  0.12000000000E+02  0.51109989000E-03 0.  1.
     -623   -1    0    0    0    0  0.00000000000E+00  0.00000000000E+00  0.42561509872E-11  0.25126700000E+02  0.25126700000E+02 0.  1.
      622    2    1    2    0    0  0.71068800352E-01  0.46780763011E-01  0.11254468043E+02  0.11255253408E+02  0.10217210893E+00 0.  0.
       11    1    1    2    0    0 -0.11278351024E+00  0.23637676838E-01  0.73564049073E+00  0.74461134344E+00  0.51109989000E-03 0.  1.
     -623    1    1    2    0    0  0.41714709892E-01 -0.70418439849E-01  0.98914556071E-02  0.25126835248E+02  0.25126700000E+02 0.  1.
     -611    1    3    3    0    0  0.45535540104E-01  0.77999067877E-01  0.81759669656E+01  0.81764719264E+01  0.10000000000E-01 0.  1.
      611    1    3    3    0    0  0.25533260248E-01 -0.31218304866E-01  0.30785010772E+01  0.30787814817E+01  0.10000000000E-01 0. -1.
</event>
<event>
 7   0  0.6206631E-02  0.9118800E+02  0.7818608E-02  0.1180000E+00
       11   -1    0    0    0    0  0.00000000000E+00  0.00000000000E+00  0.11999999989E+02  0.12000000000E+02  0.51109989000E-03 0. -1.
     -623   -1    0    0    0    0  0.00000000000E+00  0.00000000000E+00  0.42561509872E-11  0.25126700000E+02  0.25126700000E+02 0. -1.
      622    2    1    2    0    0 -0.20369445247E-01 -0.14856289420E-01  0.31366036662E+01  0.31370644636E+01  0.47489639297E-01 0.  0.
       11    1    1    2    0    0  0.74897726651E-01 -0.11336044173E+00  0.88615076173E+01  0.88625491689E+01  0.51109989000E-03 0. -1.
     -623    1    1    2    0    0 -0.54528281404E-01  0.12821673115E+00  0.18887056037E-02  0.25127086368E+02  0.25126700000E+02 0. -1.
     -611    1    3    3    0    0  0.12537498044E-01 -0.20501111454E-02  0.71534468769E+00  0.71552736777E+00  0.10000000000E-01 0. -1.
      611    1    3    3    0    0 -0.32906943291E-01 -0.12806178274E-01  0.24212589786E+01  0.24215370958E+01  0.10000000000E-01 0. -1.
</event>
<event>
 7   0  0.6206631E-02  0.9118800E+02  0.7818608E-02  0.1180000E+00
       11   -1    0    0    0    0  0.00000000000E+00  0.00000000000E+00  0.11999999989E+02  0.12000000000E+02  0.51109989000E-03 0. -1.
     -623   -1    0    0    0    0  0.00000000000E+00  0.00000000000E+00  0.42561509872E-11  0.25126700000E+02  0.25126700000E+02 0.  1.
      622    2    1    2    0    0 -0.76616231030E-02 -0.43369824500E-02  0.11929658801E+02  0.11930979039E+02  0.17726877775E+00 0.  0.
       11    1    1    2    0    0  0.34622195217E-02  0.88148076446E-02  0.68365413472E-01  0.69020133150E-01  0.51109989000E-03 0. -1.
     -623    1    1    2    0    0  0.41994035813E-02 -0.44778251945E-02  0.19757747598E-02  0.25126700828E+02  0.25126700000E+02 0.  1.
     -611    1    3    3    0    0 -0.54162909111E-01 -0.27105243138E-01  0.15883542536E+01  0.15895400435E+01  0.10000000000E-01 0.  1.
      611    1    3    3    0    0  0.46501286008E-01  0.22768260688E-01  0.10341304547E+02  0.10341438996E+02  0.10000000000E-01 0. -1.
</event>
<event>
 7   0  0.6206631E-02  0.9118800E+02  0.7818608E-02  0.1180000E+00
       11   -1    0    0    0    0  0.00000000000E+00  0.00000000000E+00  0.11999999989E+02  0.12000000000E+02  0.51109989000E-03 0. -1.
     -623   -1    0    0    0    0  0.00000000000E+00  0.00000000000E+00  0.42561509872E-11  0.25126700000E+02  0.25126700000E+02 0.  1.
      622    2    1    2    0    0 -0.14972249063E-02 -0.72104037731E-02  0.11965286481E+02  0.11965652469E+02  0.93296392142E-01 0.  0.
       11    1    1    2    0    0  0.31571083325E-02  0.53345423400E-02  0.33779538343E-01  0.34347388676E-01  0.51109989000E-03 0. -1.
     -623    1    1    2    0    0 -0.16598834263E-02  0.18758614332E-02  0.93397015675E-03  0.25126700142E+02  0.25126700000E+02 0.  1.
     -611    1    3    3    0    0  0.33606922914E-01  0.13814258456E-01  0.26196893365E+01  0.26199603964E+01  0.10000000000E-01 0.  1.
      611    1    3    3    0    0 -0.35104147820E-01 -0.21024662229E-01  0.93455971441E+01  0.93456920727E+01  0.10000000000E-01 0. -1.
</event>
<event>
 7   0  0.6206631E-02  0.9118800E+02  0.7818608E-02  0.1180000E+00
       11   -1    0    0    0    0  0.00000000000E+00  0.00000000000E+00  0.11999999989E+02  0.12000000000E+02  0.51109989000E-03 0.  1.
     -623   -1    0    0    0    0  0.00000000000E+00  0.00000000000E+00  0.42561509872E-11  0.25126700000E+02  0.25126700000E+02 0. -1.
      622    2    1    2    0    0 -0.16244176120E-02 -0.22620780047E-01  0.11452870800E+02  0.11453358042E+02  0.10318207942E+00 0.  0.
       11    1    1    2    0    0  0.48665782746E-02  0.20309567685E-01  0.54624229499E+00  0.54664162683E+00  0.51109989000E-03 0.  1.
     -623    1    1    2    0    0 -0.32421606626E-02  0.23112123619E-02  0.88689421800E-03  0.25126700331E+02  0.25126700000E+02 0. -1.
     -611    1    3    3    0    0 -0.10857023940E-01 -0.55474687827E-01  0.94297218503E+01  0.94298965790E+01  0.10000000000E-01 0.  1.
      611    1    3    3    0    0  0.92326063276E-02  0.32853907779E-01  0.20231489496E+01  0.20234614630E+01  0.10000000000E-01 0. -1.
</event>
<event>
 7   0  0.6206631E-02  0.9118800E+02  0.7818608E-02  0.1180000E+00
       11   -1    0    0    0    0  0.00000000000E+00  0.00000000000E+00  0.11999999989E+02  0.12000000000E+02  0.51109989000E-03 0. -1.
     -623   -1    0    0    0    0  0.00000000000E+00  0.00000000000E+00  0.42561509872E-11  0.25126700000E+02  0.25126700000E+02 0. -1.
      622    2    1    2    0    0  0.39437034495E-03  0.18440509974E-02  0.11925252902E+02  0.11925460505E+02  0.70341556171E-01 0.  0.
       11    1    1    2    0    0  0.89992983097E-03  0.46835436266E-02  0.74384123371E-01  0.74538610715E-01  0.51109989000E-03 0. -1.
     -623    1    1    2    0    0 -0.12943001759E-02 -0.65275946240E-02  0.36296377185E-03  0.25126700884E+02  0.25126700000E+02 0. -1.
     -611    1    3    3    0    0  0.80019074465E-02  0.11454749631E-01  0.75151364502E+00  0.75171005079E+00  0.10000000000E-01 0.  1.
      611    1    3    3    0    0 -0.76075371015E-02 -0.96106986340E-02  0.11173739257E+02  0.11173750455E+02  0.10000000000E-01 0. -1.
</event>
<event>
 7   0  0.6206631E-02  0.9118800E+02  0.7818608E-02  0.1180000E+00
       11   -1    0    0    0    0  0.00000000000E+00  0.00000000000E+00  0.11999999989E+02  0.12000000000E+02  0.51109989000E-03 0.  1.
     -623   -1    0    0    0    0  0.00000000000E+00  0.00000000000E+00  0.42561509872E-11  0.25126700000E+02  0.25126700000E+02 0.  1.
      622    2    1    2    0    0  0.28346089520E-01 -0.32491238457E-01  0.15504502899E+01  0.15521667492E+01  0.58875586086E-01 0.  0.
       11    1    1    2    0    0 -0.10749994336E-02  0.97604684626E-02  0.10447803482E+02  0.10447808109E+02  0.51109989000E-03 0.  1.
     -623    1    1    2    0    0 -0.27271090086E-01  0.22730769994E-01  0.17462170042E-02  0.25126725142E+02  0.25126700000E+02 0.  1.
     -611    1    3    3    0    0  0.17556320783E-01  0.22131110923E-02  0.17132700228E+00  0.17252844394E+00  0.10000000000E-01 0.  1.
      611    1    3    3    0    0  0.10789768736E-01 -0.34704349549E-01  0.13791232876E+01  0.13796383053E+01  0.10000000000E-01 0.  1.
</event>
<event>
 7   0  0.6206631E-02  0.9118800E+02  0.7818608E-02  0.1180000E+00
       11   -1    0    0    0    0  0.00000000000E+00  0.00000000000E+00  0.11999999989E+02  0.12000000000E+02  0.51109989000E-03 0.  1.
     -623   -1    0    0    0    0  0.00000000000E+00  0.00000000000E+00  0.42561509872E-11  0.25126700000E+02  0.25126700000E+02 0.  1.
      622    2    1    2    0    0  0.28047840019E-02  0.68083692986E-02  0.11673541936E+02  0.11673628911E+02  0.44456765272E-01 0.  0.
       11    1    1    2    0    0  0.27238482008E-03 -0.61843079912E-02  0.32631178020E+00  0.32637089174E+00  0.51109989000E-03 0.  1.
     -623    1    1    2    0    0 -0.30771688220E-02 -0.62406130761E-03  0.14627245888E-03  0.25126700197E+02  0.25126700000E+02 0.  1.
     -611    1    3    3    0    0 -0.15985059863E-01  0.68256580871E-03  0.78606399121E+01  0.78606625558E+01  0.10000000000E-01 0.  1.
      611    1    3    3    0    0  0.18789843865E-01  0.61258034899E-02  0.38129020241E+01  0.38129663556E+01  0.10000000000E-01 0. -1.
</event>
<event>
 7   0  0.6206631E-02  0.9118800E+02  0.7818608E-02  0.1180000E+00
       11   -1    0    0    0    0  0.00000000000E+00  0.00000000000E+00  0.11999999989E+02  0.12000000000E+02  0.51109989000E-03 0. -1.
     -623   -1    0    0    0    0  0.00000000000E+00  0.00000000000E+00  0.42561509872E-11  0.25126700000E+02  0.25126700000E+02 0. -1.
      622    2    1    2    0    0 -0.10652440885E-01 -0.12329477516E+00  0.90463047102E+01  0.90477288018E+01  0.10223739650E+00 0.  0.
       11    1    1    2    0    0 -0.34481037090E-01  0.88014340308E-01  0.29506919284E+01  0.29522057149E+01  0.51109989000E-03 0. -1.
     -623    1    1    2    0    0  0.45133477975E-01  0.35280434848E-01  0.30033505570E-02  0.25126765483E+02  0.25126700000E+02 0. -1.
     -611    1    3    3    0    0  0.28220706916E-01 -0.45535876135E-01  0.16360021602E+01  0.16369095859E+01  0.10000000000E-01 0.  1.
      611    1    3    3    0    0 -0.38873147800E-01 -0.77758899021E-01  0.74103025500E+01  0.74108192159E+01  0.10000000000E-01 0. -1.
</event>
<event>
 7   0  0.6206631E-02  0.9118800E+02  0.7818608E-02  0.1180000E+00
       11   -1    0    0    0    0  0.00000000000E+00  0.00000000000E+00  0.11999999989E+02  0.12000000000E+02  0.51109989000E-03 0. -1.
     -623   -1    0    0    0    0  0.00000000000E+00  0.00000000000E+00  0.42561509872E-11  0.25126700000E+02  0.25126700000E+02 0.  1.
      622    2    1    2    0    0 -0.81631810189E-02 -0.85073215357E-03  0.11934021733E+02  0.11934355824E+02  0.88920526811E-01 0.  0.
       11    1    1    2    0    0  0.52169110506E-02 -0.10470494501E-01  0.64588594780E-01  0.65641413870E-01  0.51109989000E-03 0. -1.
     -623    1    1    2    0    0  0.29462699682E-02  0.11321226654E-01  0.13896613209E-02  0.25126702762E+02  0.25126700000E+02 0.  1.
     -611    1    3    3    0    0  0.23278166433E-01 -0.19061557978E-01  0.19090452342E+01  0.19093084932E+01  0.10000000000E-01 0.  1.
      611    1    3    3    0    0 -0.31441347452E-01  0.18210825824E-01  0.10024976499E+02  0.10025047331E+02  0.10000000000E-01 0. -1.
</event>
<event>
 7   0  0.6206631E-02  0.9118800E+02  0.7818608E-02  0.1180000E+00
       11   -1    0    0    0    0  0.00000000000E+00  0.00000000000E+00  0.11999999989E+02  0.12000000000E+02  0.51109989000E-03 0.  1.
     -623   -1    0    0    0    0  0.00000000000E+00  0.00000000000E+00  0.42561509872E-11  0.25126700000E+02  0.25126700000E+02 0.  1.
      622    2    1    2    0    0  0.72344266060E-01 -0.67039694707E-01  0.11007769898E+02  0.11008575921E+02  0.89541445572E-01 0.  0.
       11    1    1    2    0    0 -0.98703623837E-01  0.59332791433E-01  0.98469622723E+00  0.99140794158E+00  0.51109989000E-03 0.  1.
     -623    1    1    2    0    0  0.26359357777E-01  0.77069032733E-02  0.75338642408E-02  0.25126716138E+02  0.25126700000E+02 0.  1.
     -611    1    3    3    0    0  0.15917104326E-01  0.20628049550E-01  0.27581755574E+01  0.27583167469E+01  0.10000000000E-01 0. -1.
      611    1    3    3    0    0  0.56427161734E-01 -0.87667744257E-01  0.82495943402E+01  0.82502591739E+01  0.10000000000E-01 0.  1.
</event>
<event>
 7   0  0.6206631E-02  0.9118800E+02  0.7818608E-02  0.1180000E+00
       11   -1    0    0    0    0  0.00000000000E+00  0.00000000000E+00  0.11999999989E+02  0.12000000000E+02  0.51109989000E-03 0. -1.
     -623   -1    0    0    0    0  0.00000000000E+00  0.00000000000E+00  0.42561509872E-11  0.25126700000E+02  0.25126700000E+02 0. -1.
      622    2    1    2    0    0  0.37164045124E-02  0.43040922001E-02  0.11963298065E+02  0.11963820460E+02  0.11165601790E+00 0.  0.
       11    1    1    2    0    0 -0.46689639822E-02 -0.15819894833E-02  0.35838288542E-01  0.36179359643E-01  0.51109989000E-03 0. -1.
     -623    1    1    2    0    0  0.95255946983E-03 -0.27221027168E-02  0.86363540661E-03  0.25126700180E+02  0.25126700000E+02 0. -1.
     -611    1    3    3    0    0  0.43692849311E-01  0.28138934841E-01  0.88522116859E+01  0.88523698859E+01  0.10000000000E-01 0. -1.
      611    1    3    3    0    0 -0.39976444798E-01 -0.23834842641E-01  0.31110863793E+01  0.31114505741E+01  0.10000000000E-01 0.  1.
</event>
<event>
 7   0  0.6206631E-02  0.9118800E+02  0.7818608E-02  0.1180000E+00
       11   -1    0    0    0    0  0.00000000000E+00  0.00000000000E+00  0.11999999989E+02  0.12000000000E+02  0.51109989000E-03 0.  1.
     -623   -1    0    0    0    0  0.00000000000E+00  0.00000000000E+00  0.42561509872E-11  0.25126700000E+02  0.25126700000E+02 0. -1.
      622    2    1    2    0    0 -0.27409560035E-01 -0.13001573294E-01  0.10654869600E+02  0.10655193679E+02  0.77368085911E-01 0.  0.
       11    1    1    2    0    0 -0.40994722460E-01  0.69282416199E-02  0.13440694756E+01  0.13447124541E+01  0.51109989000E-03 0.  1.
     -623    1    1    2    0    0  0.68404282495E-01  0.60733316736E-02  0.10609139549E-02  0.25126793867E+02  0.25126700000E+02 0. -1.
     -611    1    3    3    0    0 -0.31553203050E-01 -0.66287289822E-02  0.18077141541E+01  0.18080293161E+01  0.10000000000E-01 0. -1.
      611    1    3    3    0    0  0.41436430146E-02 -0.63728443113E-02  0.88471554454E+01  0.88471643626E+01  0.10000000000E-01 0.  1.
</event>
<event>
 7   0  0.6206631E-02  0.9118800E+02  0.7818608E-02  0.1180000E+00
       11   -1    0    0    0    0  0.00000000000E+00  0.00000000000E+00  0.11999999989E+02  0.12000000000E+02  0.51109989000E-03 0.  1.
     -623   -1    0    0    0    0  0.00000000000E+00  0.00000000000E+00  0.42561509872E-11  0.25126700000E+02  0.25126700000E+02 0. -1.
      622    2    1    2    0    0 -0.15068427136E-01  0.28415174982E-02  0.11337505658E+02  0.11337984277E+02  0.10304267581E+00 0.  0.
       11    1    1    2    0    0  0.14019638042E-01 -0.49248708339E-02  0.66184862136E+00  0.66201560663E+00  0.51109989000E-03 0.  1.
     -623    1    1    2    0    0  0.10487890939E-02  0.20833533358E-02  0.64571014116E-03  0.25126700117E+02  0.25126700000E+02 0. -1.
     -611    1    3    3    0    0 -0.26134075878E-01  0.41413729162E-01  0.33630032843E+01  0.33633746710E+01  0.10000000000E-01 0. -1.
      611    1    3    3    0    0  0.11065648742E-01 -0.38572211664E-01  0.79745023733E+01  0.79746096058E+01  0.10000000000E-01 0.  1.
</event>
<event>
 7   0  0.6206631E-02  0.9118800E+02  0.7818608E-02  0.1180000E+00
       11   -1    0    0    0    0  0.00000000000E+00  0.00000000000E+00  0.11999999989E+02  0.12000000000E+02  0.51109989000E-03 0. -1.
     -623   -1    0    0    0    0  0.00000000000E+00  0.00000000000E+00  0.42561509872E-11  0.25126700000E+02  0.25126700000E+02 0.  1.
      622    2    1    2    0    0  0.18629284156E-02 -0.15753665557E-02  0.11916797319E+02  0.11917047359E+02  0.77158703074E-01 0.  0.
       11    1    1    2    0    0 -0.28008248792E-02  0.99097140428E-03  0.82897819218E-01  0.82952614779E-01  0.51109989000E-03 0. -1.
     -623    1    1    2    0    0  0.93789646366E-03  0.58439515143E-03  0.30485096498E-03  0.25126700026E+02  0.25126700000E+02 0.  1.
     -611    1    3    3    0    0 -0.58099026467E-03 -0.88875669337E-02  0.11587906134E+02  0.11587913872E+02  0.10000000000E-01 0. -1.
      611    1    3    3    0    0  0.24439186802E-02  0.73122003780E-02  0.32889118470E+00  0.32913348719E+00  0.10000000000E-01 0. -1.
</event>
<event>
 7   0  0.6206631E-02  0.9118800E+02  0.7818608E-02  0.1180000E+00
       11   -1    0    0    0    0  0.00000000000E+00  0.00000000000E+00  0.11999999989E+02  0.12000000000E+02  0.51109989000E-03 0.  1.
     -623   -1    0    0    0    0  0.00000000000E+00  0.00000000000E+00  0.42561509872E-11  0.25126700000E+02  0.25126700000E+02 0. -1.
      622    2    1    2    0    0 -0.93602229532E-02 -0.13502324524E-01  0.98664386705E+01  0.98667133524E+01  0.71766386667E-01 0.  0.
       11    1    1    2    0    0  0.24829459559E-03  0.13214558371E-01  0.21332439871E+01  0.21332849918E+01  0.51109989000E-03 0.  1.
     -623    1    1    2    0    0  0.91119283576E-02  0.28776615290E-03  0.31733152545E-03  0.25126701656E+02  0.25126700000E+02 0. -1.
     -611    1    3    3    0    0 -0.29721545593E-01  0.16749162897E-01  0.43685019593E+01  0.43686466180E+01  0.10000000000E-01 0.  1.
      611    1    3    3    0    0  0.20361322640E-01 -0.30251487421E-01  0.54979367112E+01  0.54980667344E+01  0.10000000000E-01 0.  1.
</event>
<event>
 7   0  0.6206631E-02  0.9118800E+02  0.7818608E-02  0.1180000E+00
       11   -1    0    0    0    0  0.00000000000E+00  0.00000000000E+00  0.11999999989E+02  0.12000000000E+02  0.51109989000E-03 0.  1.
     -623   -1    0    0    0    0  0.00000000000E+00  0.00000000000E+00  0.42561509872E-11  0.25126700000E+02  0.25126700000E+02 0.  1.
      622    2    1    2    0    0 -0.13736766187E-01 -0.51650115679E-01  0.11308876995E+02  0.11309935275E+02  0.14519167694E+00 0.  0.
       11    1    1    2    0    0  0.15048150759E-01  0.58436998780E-01  0.68741984572E+00  0.69006350083E+00  0.51109989000E-03 0.  1.
     -623    1    1    2    0    0 -0.13113845727E-02 -0.67868831015E-02  0.37031487932E-02  0.25126701224E+02  0.25126700000E+02 0.  1.
     -611    1    3    3    0    0 -0.17693743608E-01  0.48244310219E-01  0.30789336059E+01  0.30793786275E+01  0.10000000000E-01 0. -1.
      611    1    3    3    0    0  0.39569774216E-02 -0.99894425898E-01  0.82299433887E+01  0.82305566479E+01  0.10000000000E-01 0.  1.
</event>
<event>
 7   0  0.6206631E-02  0.9118800E+02  0.7818608E-02  0.1180000E+00
       11   -1    0    0    0    0  0.00000000000E+00  0.00000000000E+00  0.11999999989E+02  0.12000000000E+02  0.51109989000E-03 0. -1.
     -623   -1    0    0    0    0  0.00000000000E+00  0.00000000000E+00  0.42561509872E-11  0.25126700000E+02  0.25126700000E+02 0.  1.
      622    2    1    2    0    0  0.49648289094E-01 -0.25914106390E-01  0.11228835499E+02  0.11229415780E+02  0.99476670059E-01 0.  0.
       11    1    1    2    0    0 -0.21804809187E-01  0.38384621912E-01  0.76929987553E+00  0.77056562901E+00  0.51109989000E-03 0. -1.
     -623    1    1    2    0    0 -0.27843479907E-01 -0.12470515522E-01  0.18646145946E-02  0.25126718591E+02  0.25126700000E+02 0.  1.
     -611    1    3    3    0    0  0.42434083847E-01 -0.20635336893E-01  0.20387131734E+01  0.20392836664E+01  0.10000000000E-01 0.  1.
      611    1    3    3    0    0  0.72142052472E-02 -0.52787694972E-02  0.91901223256E+01  0.91901321138E+01  0.10000000000E-01 0. -1.
</event>
<event>
 7   0  0.6206631E-02  0.9118800E+02  0.7818608E-02  0.1180000E+00
       11   -1    0    0    0    0  0.00000000000E+00  0.00000000000E+00  0.11999999989E+02  0.12000000000E+02  0.51109989000E-03 0. -1.
     -623   -1    0    0    0    0  0.00000000000E+00  0.00000000000E+00  0.42561509872E-11  0.25126700000E+02  0.25126700000E+02 0. -1.
      622    2    1    2    0    0  0.22433701069E-02  0.10877498016E-02  0.11983423498E+02  0.11983546483E+02  0.54234463148E-01 0.  0.
       11    1    1    2    0    0  0.11396671692E-03  0.83814456355E-03  0.16423624185E-01  0.16453331858E-01  0.51109989000E-03 0. -1.
     -623    1    1    2    0    0 -0.23573368238E-02 -0.19258943652E-02  0.15286727617E-03  0.25126700185E+02  0.25126700000E+02 0. -1.
     -611    1    3    3    0    0  0.18535971357E-01  0.64990912978E-02  0.99828662411E+01  0.99828905738E+01  0.10000000000E-01 0. -1.
      611    1    3    3    0    0 -0.16292601250E-01 -0.54113414962E-02  0.20005572566E+01  0.20006559095E+01  0.10000000000E-01 0. -1.
</event>
<event>
 7   0  0.6206631E-02  0.9118800E+02  0.7818608E-02  0.1180000E+00
       11   -1    0    0    0    0  0.00000000000E+00  0.00000000000E+00  0.11999999989E+02  0.12000000000E+02  0.51109989000E-03 0. -1.
     -623   -1    0    0    0    0  0.00000000000E+00  0.00000000000E+00  0.42561509872E-11  0.25126700000E+02  0.25126700000E+02 0.  1.
      622    2    1    2    0    0  0.35667923630E-02 -0.39369199249E-02  0.11950238645E+02  0.11950715968E+02  0.10667821417E+00 0.  0.
       11    1    1    2    0    0 -0.25336267370E-02 -0.18042766393E-02  0.49182441441E-01  0.49283348586E-01  0.51109989000E-03 0. -1.
     -623    1    1    2    0    0 -0.10331656260E-02  0.57411965642E-02  0.57890254906E-03  0.25126700684E+02  0.25126700000E+02 0.  1.
     -611    1    3    3    0    0  0.11769525570E-01 -0.43728116903E-01  0.95505223480E+01  0.95506349417E+01  0.10000000000E-01 0. -1.
      611    1    3    3    0    0 -0.82027332071E-02  0.39791196978E-01  0.23997162971E+01  0.24000810259E+01  0.10000000000E-01 0.  1.
</event>
<event>
 7   0  0.6206631E-02  0.9118800E+02  0.7818608E-02  0.1180000E+00
       11   -1    0    0    0    0  0.00000000000E+00  0.00000000000E+00  0.11999999989E+02  0.12000000000E+02  0.51109989000E-03 0. -1.
     -623   -1    0    0    0    0  0.00000000000E+00  0.00000000000E+00  0.42561509872E-11  0.25126700000E+02  0.25126700000E+02 0.  1.
      622    2    1    2    0    0 -0.29246536769E-02 -0.52541900221E-02  0.11989352820E+02  0.11989942624E+02  0.11877262382E+00 0.  0.
       11    1    1    2    0    0 -0.33037968074E-02  0.49749844234E-02  0.80750129323E-02  0.10056470570E-01  0.51109989000E-03 0. -1.
     -623    1    1    2    0    0  0.62284504842E-02  0.27920559874E-03  0.25721564175E-02  0.25126700905E+02  0.25126700000E+02 0.  1.
     -611    1    3    3    0    0 -0.51943688859E-01 -0.31319211477E-01  0.54574714977E+01  0.54578177129E+01  0.10000000000E-01 0. -1.
      611    1    3    3    0    0  0.49019035182E-01  0.26065021455E-01  0.65318813221E+01  0.65321249113E+01  0.10000000000E-01 0.  1.
</event>
<event>
 7   0  0.6206631E-02  0.9118800E+02  0.7818608E-02  0.1180000E+00
       11   -1    0    0    0    0  0.00000000000E+00  0.00000000000E+00  0.11999999989E+02  0.12000000000E+02  0.51109989000E-03 0.  1.
     -623   -1    0    0    0    0  0.00000000000E+00  0.00000000000E+00  0.42561509872E-11  0.25126700000E+02  0.25126700000E+02 0. -1.
      622    2    1    2    0    0  0.63763651082E-02  0.15574974063E-02  0.11662230212E+02  0.11662910034E+02  0.12575323679E+00 0.  0.
       11    1    1    2    0    0 -0.29926176675E-02 -0.99337962369E-03  0.33707458648E+00  0.33708972194E+00  0.51109989000E-03 0.  1.
     -623    1    1    2    0    0 -0.33837474407E-02 -0.56411778262E-03  0.69519109406E-03  0.25126700244E+02  0.25126700000E+02 0. -1.
     -611    1    3    3    0    0 -0.34080348070E-01 -0.41455647444E-01  0.80348228873E+01  0.80350083305E+01  0.10000000000E-01 0.  1.
      611    1    3    3    0    0  0.40456713178E-01  0.43013144850E-01  0.36274073242E+01  0.36279017037E+01  0.10000000000E-01 0. -1.
</event>
<event>
 7   0  0.6206631E-02  0.9118800E+02  0.7818608E-02  0.1180000E+00
       11   -1    0    0    0    0  0.00000000000E+00  0.00000000000E+00  0.11999999989E+02  0.12000000000E+02  0.51109989000E-03 0.  1.
     -623   -1    0    0    0    0  0.00000000000E+00  0.00000000000E+00  0.42561509872E-11  0.25126700000E+02  0.25126700000E+02 0. -1.
      622    2    1    2    0    0  0.74611127779E-02 -0.49955011698E-01  0.93907538554E+01  0.93916067215E+01  0.11605028151E+00 0.  0.
       11    1    1    2    0    0 -0.42750453989E-01  0.60036976371E-01  0.26073248708E+01  0.26083664012E+01  0.51109989000E-03 0.  1.
     -623    1    1    2    0    0  0.35289341211E-01 -0.10081964673E-01  0.19212629324E-02  0.25126726877E+02  0.25126700000E+02 0. -1.
     -611    1    3    3    0    0  0.13919153278E-01 -0.57275550293E-01  0.92430241310E+01  0.92432174765E+01  0.10000000000E-01 0.  1.
      611    1    3    3    0    0 -0.64580405000E-02  0.73205385951E-02  0.14772972442E+00  0.14838924506E+00  0.10000000000E-01 0.  1.
</event>
<event>
 7   0  0.6206631E-02  0.9118800E+02  0.7818608E-02  0.1180000E+00
       11   -1    0    0    0    0  0.00000000000E+00  0.00000000000E+00  0.11999999989E+02  0.12000000000E+02  0.51109989000E-03 0. -1.
     -623   -1    0    0    0    0  0.00000000000E+00  0.00000000000E+00  0.42561509872E-11  0.25126700000E+02  0.25126700000E+02 0.  1.
      622    2    1    2    0    0  0.10409275433E-01 -0.16137751568E-02  0.11483029828E+02  0.11483473099E+02  0.10034655774E+00 0.  0.
       11    1    1    2    0    0 -0.11181434100E-01  0.51985969289E-03  0.51640530573E+00  0.51652685868E+00  0.51109989000E-03 0. -1.
     -623    1    1    2    0    0  0.77215866705E-03  0.10939154639E-02  0.56485527363E-03  0.25126700042E+02  0.25126700000E+02 0.  1.
     -611    1    3    3    0    0 -0.42313006794E-01 -0.42532085680E-02  0.66783808952E+01  0.66785237787E+01  0.10000000000E-01 0. -1.
      611    1    3    3    0    0  0.52722282227E-01  0.26394334112E-02  0.48046489329E+01  0.48049493206E+01  0.10000000000E-01 0.  1.
</event>
<event>
 7   0  0.6206631E-02  0.9118800E+02  0.7818608E-02  0.1180000E+00
       11   -1    0    0    0    0  0.00000000000E+00  0.00000000000E+00  0.11999999989E+02  0.12000000000E+02  0.51109989000E-03 0.  1.
     -623   -1    0    0    0    0  0.00000000000E+00  0.00000000000E+00  0.42561509872E-11  0.25126700000E+02  0.25126700000E+02 0. -1.
      622    2    1    2    0    0  0.11777288031E-01  0.67325924836E-02  0.82694654017E+01  0.82695057326E+01  0.21977249642E-01 0.  0.
       11    1    1    2    0    0 -0.14455233890E-01 -0.72044748123E-02  0.37304591224E+01  0.37304941206E+01  0.51109989000E-03 0.  1.
     -623    1    1    2    0    0  0.26779458601E-02  0.47188232914E-03  0.75465420059E-04  0.25126700147E+02  0.25126700000E+02 0. -1.
     -611    1    3    3    0    0  0.99457589311E-03  0.12809101655E-02  0.33708163286E+01  0.33708315519E+01  0.10000000000E-01 0. -1.
      611    1    3    3    0    0  0.10782712138E-01  0.54516823180E-02  0.48986490731E+01  0.48986741807E+01  0.10000000000E-01 0.  1.
</event>
<event>
 7   0  0.6206631E-02  0.9118800E+02  0.7818608E-02  0.1180000E+00
       11   -1    0    0    0    0  0.00000000000E+00  0.00000000000E+00  0.11999999989E+02  0.12000000000E+02  0.51109989000E-03 0.  1.
     -623   -1    0    0    0    0  0.00000000000E+00  0.00000000000E+00  0.42561509872E-11  0.25126700000E+02  0.25126700000E+02 0. -1.
      622    2    1    2    0    0 -0.90706615756E-03  0.12726613509E-02  0.11973085356E+02  0.11973269749E+02  0.66431179560E-01 0.  0.
       11    1    1    2    0    0  0.79706205824E-03 -0.21273886459E-02  0.26628614605E-01  0.26730234366E-01  0.51109989000E-03 0.  1.
     -623    1    1    2    0    0  0.11000409932E-03  0.85472729507E-03  0.28601844596E-03  0.25126700016E+02  0.25126700000E+02 0. -1.
     -611    1    3    3    0    0 -0.13480865369E-01  0.13367624672E-01  0.10732274092E+02  0.10732295542E+02  0.10000000000E-01 0.  1.
      611    1    3    3    0    0  0.12573799211E-01 -0.12094963321E-01  0.12408112645E+01  0.12409742071E+01  0.10000000000E-01 0. -1.
</event>
<event>
 7   0  0.6206631E-02  0.9118800E+02  0.7818608E-02  0.1180000E+00
       11   -1    0    0    0    0  0.00000000000E+00  0.00000000000E+00  0.11999999989E+02  0.12000000000E+02  0.51109989000E-03 0.  1.
     -623   -1    0    0    0    0  0.00000000000E+00  0.00000000000E+00  0.42561509872E-11  0.25126700000E+02  0.25126700000E+02 0.  1.
      622    2    1    2    0    0  0.13814310211E-01  0.10764936021E-01  0.11816464300E+02  0.11816901795E+02  0.10016368544E+00 0.  0.
       11    1    1    2    0    0 -0.11614621867E-01 -0.16809936002E-01  0.18195301109E+00  0.18309733165E+00  0.51109989000E-03 0.  1.
     -623    1    1    2    0    0 -0.21996883439E-02  0.60449999811E-02  0.15826781084E-02  0.25126700873E+02  0.25126700000E+02 0.  1.
     -611    1    3    3    0    0  0.31070560123E-01  0.47951300199E-01  0.58212516221E+01  0.58215406169E+01  0.10000000000E-01 0.  1.
      611    1    3    3    0    0 -0.17256249913E-01 -0.37186364178E-01  0.59952126778E+01  0.59953611781E+01  0.10000000000E-01 0. -1.
</event>
<event>
 7   0  0.6206631E-02  0.9118800E+02  0.7818608E-02  0.1180000E+00
       11   -1    0    0    0    0  0.00000000000E+00  0.00000000000E+00  0.11999999989E+02  0.12000000000E+02  0.51109989000E-03 0. -1.
     -623   -1    0    0    0    0  0.00000000000E+00  0.00000000000E+00  0.42561509872E-11  0.25126700000E+02  0.25126700000E+02 0.  1.
      622    2    1    2    0    0 -0.27458431455E-02 -0.10290004140E-01  0.11798454988E+02  0.11798753306E+02  0.83222950182E-01 0.  0.
       11    1    1    2    0    0  0.16740747814E-01  0.14224601370E-01  0.20003916576E+00  0.20124244330E+00  0.51109989000E-03 0. -1.
     -623    1    1    2    0    0 -0.13994904668E-01 -0.39345972301E-02  0.15058357084E-02  0.25126704251E+02  0.25126700000E+02 0.  1.
     -611    1    3    3    0    0  0.10276332799E-01 -0.28065982231E-01  0.18468527672E+01  0.18471216652E+01  0.10000000000E-01 0.  1.
      611    1    3    3    0    0 -0.13022175944E-01  0.17775978091E-01  0.99516022205E+01  0.99516316409E+01  0.10000000000E-01 0. -1.
</event>
<event>
 7   0  0.6206631E-02  0.9118800E+02  0.7818608E-02  0.1180000E+00
       11   -1    0    0    0    0  0.00000000000E+00  0.00000000000E+00  0.11999999989E+02  0.12000000000E+02  0.51109989000E-03 0. -1.
     -623   -1    0    0    0    0  0.00000000000E+00  0.00000000000E+00  0.42561509872E-11  0.25126700000E+02  0.25126700000E+02 0.  1.
      622    2    1    2    0    0  0.42389604244E-02  0.32447978777E-02  0.11995266244E+02  0.11995741953E+02  0.10669704992E+00 0.  0.
       11    1    1    2    0    0  0.41858109687E-03 -0.31448642254E-02  0.27928551223E-02  0.42575396665E-02  0.51109989000E-03 0. -1.
     -623    1    1    2    0    0 -0.46575415213E-02 -0.99933652285E-04  0.19408903007E-02  0.25126700507E+02  0.25126700000E+02 0.  1.
     -611    1    3    3    0    0 -0.23014400855E-01  0.17289968325E-01  0.10793694438E+02  0.10793737454E+02  0.10000000000E-01 0. -1.
      611    1    3    3    0    0  0.27253361279E-01 -0.14045170447E-01  0.12015718054E+01  0.12020044991E+01  0.10000000000E-01 0.  1.
</event>
<event>
 7   0  0.6206631E-02  0.9118800E+02  0.7818608E-02  0.1180000E+00
       11   -1    0    0    0    0  0.00000000000E+00  0.00000000000E+00  0.11999999989E+02  0.12000000000E+02  0.51109989000E-03 0.  1.
     -623   -1    0    0    0    0  0.00000000000E+00  0.00000000000E+00  0.42561509872E-11  0.25126700000E+02  0.25126700000E+02 0.  1.
      622    2    1    2    0    0 -0.11090506019E-01 -0.24703975348E-01  0.10945310949E+02  0.10945557279E+02  0.68257564031E-01 0.  0.
       11    1    1    2    0    0  0.39946434239E-01  0.86415292288E-02  0.10536284831E+01  0.10544209953E+01  0.51109989000E-03 0.  1.
     -623    1    1    2    0    0 -0.28855928220E-01  0.16062446119E-01  0.10605571481E-02  0.25126721726E+02  0.25126700000E+02 0.  1.
     -611    1    3    3    0    0 -0.32651348660E-01 -0.30833099257E-01  0.84608489814E+01  0.84609740737E+01  0.10000000000E-01 0. -1.
      611    1    3    3    0    0  0.21560842641E-01  0.61291239084E-02  0.24844619675E+01  0.24845832053E+01  0.10000000000E-01 0.  1.
</event>
<event>
 7   0  0.6206631E-02  0.9118800E+02  0.7818608E-02  0.1180000E+00
       11   -1    0    0    0    0  0.00000000000E+00  0.00000000000E+00  0.11999999989E+02  0.12000000000E+02  0.51109989000E-03 0.  1.
     -623   -1    0    0    0    0  0.00000000000E+00  0.00000000000E+00  0.42561509872E-11  0.25126700000E+02  0.25126700000E+02 0. -1.
      622    2    1    2    0    0 -0.16481864165E-01 -0.14570607532E-01  0.11563989588E+02  0.11564806457E+02  0.13568065959E+00 0.  0.
       11    1    1    2    0    0 -0.15802038887E-01  0.43783218108E-01  0.43265859342E+00  0.43515559781E+00  0.51109989000E-03 0.  1.
     -623    1    1    2    0    0  0.32283903052E-01 -0.29212610577E-01  0.33518073791E-02  0.25126737945E+02  0.25126700000E+02 0. -1.
     -611    1    3    3    0    0  0.38523282782E-01 -0.41707158055E-01  0.84510019221E+01  0.84511985551E+01  0.10000000000E-01 0.  1.
      611    1    3    3    0    0 -0.55005146947E-01  0.27136550523E-01  0.31129876663E+01  0.31136079022E+01  0.10000000000E-01 0. -1.
</event>
<event>
 7   0  0.6206631E-02  0.9118800E+02  0.7818608E-02  0.1180000E+00
       11   -1    0    0    0    0  0.00000000000E+00  0.00000000000E+00  0.11999999989E+02  0.12000000000E+02  0.51109989000E-03 0. -1.
     -623   -1    0    0    0    0  0.00000000000E+00  0.00000000000E+00  0.42561509872E-11  0.25126700000E+02  0.25126700000E+02 0.  1.
      622    2    1    2    0    0  0.28063893537E-02 -0.10954787055E-01  0.11235360448E+02  0.11235660895E+02  0.81384693764E-01 0.  0.
       11    1    1    2    0    0 -0.49570646634E-02  0.12390647245E-01  0.76422228233E+00  0.76433896843E+00  0.51109989000E-03 0. -1.
     -623    1    1    2    0    0  0.21506753098E-02 -0.14358601900E-02  0.41725878015E-03  0.25126700137E+02  0.25126700000E+02 0.  1.
     -611    1    3    3    0    0  0.12325916305E-01 -0.11315089108E-01  0.65173019366E+00  0.65202162908E+00  0.10000000000E-01 0.  1.
      611    1    3    3    0    0 -0.95195269515E-02  0.36030205285E-03  0.10583630254E+02  0.10583639266E+02  0.10000000000E-01 0. -1.
</event>
<event>
 7   0  0.6206631E-02  0.9118800E+02  0.7818608E-02  0.1180000E+00
       11   -1    0    0    0    0  0.00000000000E+00  0.00000000000E+00  0.11999999989E+02  0.12000000000E+02  0.51109989000E-03 0.  1.
     -623   -1    0    0    0    0  0.00000000000E+00  0.00000000000E+00  0.42561509872E-11  0.25126700000E+02  0.25126700000E+02 0.  1.
      622    2    1    2    0    0 -0.20092577132E-02  0.43182459115E-02  0.11428408982E+02  0.11428675109E+02  0.77847347039E-01 0.  0.
       11    1    1    2    0    0  0.16992036343E-02  0.46165132879E-02  0.57130189115E+00  0.57132329862E+00  0.51109989000E-03 0.  1.
     -623    1    1    2    0    0  0.31005407896E-03 -0.89347591995E-02  0.28911599910E-03  0.25126701592E+02  0.25126700000E+02 0.  1.
     -611    1    3    3    0    0  0.23289127458E-01  0.90459351132E-02  0.15924460949E+01  0.15926734686E+01  0.10000000000E-01 0. -1.
      611    1    3    3    0    0 -0.25298385171E-01 -0.47276892016E-02  0.98359628871E+01  0.98360016407E+01  0.10000000000E-01 0.  1.
</event>
<event>
 7   0  0.6206631E-02  0.9118800E+02  0.7818608E-02  0.1180000E+00
       11   -1    0    0    0    0  0.00000000000E+00  0.00000000000E+00  0.11999999989E+02  0.12000000000E+02  0.51109989000E-03 0.  1.
     -623   -1    0    0    0    0  0.00000000000E+00  0.00000000000E+00  0.42561509872E-11  0.25126700000E+02  0.25126700000E+02 0.  1.
      622    2    1    2    0    0 -0.93588898336E-01  0.32865315263E-02  0.64063759264E+01  0.64082456728E+01  0.12324937920E+00 0.  0.
       11    1    1    2    0    0  0.90097555280E-01 -0.13343844027E-01  0.55910100897E+01  0.55917519359E+01  0.51109989000E-03 0.  1.
     -623    1    1    2    0    0  0.34913430561E-02  0.10057312501E-01  0.26139729839E-02  0.25126702391E+02  0.25126700000E+02 0.  1.
     -611    1    3    3    0    0 -0.11772625839E+00  0.22573743338E-01  0.54223087933E+01  0.54236428436E+01  0.10000000000E-01 0.  1.
      611    1    3    3    0    0  0.24137360052E-01 -0.19287211812E-01  0.98406713314E+00  0.98460282918E+00  0.10000000000E-01 0. -1.
</event>
<event>
 7   0  0.6206631E-02  0.9118800E+02  0.7818608E-02  0.1180000E+00
       11   -1    0    0    0    0  0.00000000000E+00  0.00000000000E+00  0.11999999989E+02  0.12000000000E+02  0.51109989000E-03 0. -1.
     -623   -1    0    0    0    0  0.00000000000E+00  0.00000000000E+00  0.42561509872E-11  0.25126700000E+02  0.25126700000E+02 0. -1.
      622    2    1    2    0    0 -0.54965412185E-03 -0.12965813675E-02  0.11997625910E+02  0.11998011218E+02  0.96144352047E-01 0.  0.
       11    1    1    2    0    0  0.64782771085E-03  0.29827756757E-03  0.17847334162E-02  0.19887550671E-02  0.51109989000E-03 0. -1.
     -623    1    1    2    0    0 -0.98173589003E-04  0.99830379990E-03  0.58934606934E-03  0.25126700027E+02  0.25126700000E+02 0. -1.
     -611    1    3    3    0    0  0.36205842680E-01  0.19620293670E-01  0.86424130638E+01  0.86425169589E+01  0.10000000000E-01 0. -1.
      611    1    3    3    0    0 -0.36755496801E-01 -0.20916875038E-01  0.33552128458E+01  0.33554942591E+01  0.10000000000E-01 0.  1.
</event>
<event>
 7   0  0.6206631E-02  0.9118800E+02  0.7818608E-02  0.1180000E+00
       11   -1    0    0    0    0  0.00000000000E+00  0.00000000000E+00  0.11999999989E+02  0.12000000000E+02  0.51109989000E-03 0.  1.
     -623   -1    0    0    0    0  0.00000000000E+00  0.00000000000E+00  0.42561509872E-11  0.25126700000E+02  0.25126700000E+02 0.  1.
      622    2    1    2    0    0 -0.10301584196E-02 -0.11946384675E-02  0.11972643266E+02  0.11972942788E+02  0.84674351390E-01 0.  0.
       11    1    1    2    0    0  0.21542735285E-02 -0.15117204397E-02  0.26923890181E-01  0.27057037509E-01  0.51109989000E-03 0.  1.
     -623    1    1    2    0    0 -0.11241151089E-02  0.27063589072E-02  0.43283325120E-03  0.25126700175E+02  0.25126700000E+02 0.  1.
     -611    1    3    3    0    0  0.23514289104E-01  0.20894340481E-01  0.95161795367E+01  0.95162367809E+01  0.10000000000E-01 0.  1.
      611    1    3    3    0    0 -0.24544447523E-01 -0.22088978948E-01  0.24564637291E+01  0.24567060071E+01  0.10000000000E-01 0. -1.
</event>
<event>
 7   0  0.6206631E-02  0.9118800E+02  0.7818608E-02  0.1180000E+00
       11   -1    0    0    0    0  0.00000000000E+00  0.00000000000E+00  0.11999999989E+02  0.12000000000E+02  0.51109989000E-03 0. -1.
     -623   -1    0    0    0    0  0.00000000000E+00  0.00000000000E+00  0.42561509872E-11  0.25126700000E+02  0.25126700000E+02 0.  1.
      622    2    1    2    0    0 -0.66792768222E-02  0.67850424325E-01  0.68524325209E+01  0.68538876482E+01  0.12367759748E+00 0.  0.
       11    1    1    2    0    0 -0.32845557059E-02 -0.11389976738E-01  0.51460332167E+01  0.51460468953E+01  0.51109989000E-03 0. -1.
     -623    1    1    2    0    0  0.99638325280E-02 -0.56460447588E-01  0.15342514874E-02  0.25126765456E+02  0.25126700000E+02 0.  1.
     -611    1    3    3    0    0  0.51593206819E-01  0.14361449893E-01  0.38935584052E+01  0.38939395430E+01  0.10000000000E-01 0. -1.
      611    1    3    3    0    0 -0.58272483641E-01  0.53488974432E-01  0.29588741157E+01  0.29599481052E+01  0.10000000000E-01 0.  1.
</event>
<event>
 7   0  0.6206631E-02  0.9118800E+02  0.7818608E-02  0.1180000E+00
       11   -1    0    0    0    0  0.00000000000E+00  0.00000000000E+00  0.11999999989E+02  0.12000000000E+02  0.51109989000E-03 0. -1.
     -623   -1    0    0    0    0  0.00000000000E+00  0.00000000000E+00  0.42561509872E-11  0.25126700000E+02  0.25126700000E+02 0. -1.
      622    2    1    2    0    0 -0.35776981665E-02  0.38824807402E-01  0.11095822195E+02  0.11096576978E+02  0.12341106579E+00 0.  0.
       11    1    1    2    0    0  0.15507177768E-01 -0.24526828044E-01  0.90294979686E+00  0.90341609169E+00  0.51109989000E-03 0. -1.
     -623    1    1    2    0    0 -0.11929479601E-01 -0.14297979358E-01  0.12279973855E-02  0.25126706930E+02  0.25126700000E+02 0. -1.
     -611    1    3    3    0    0  0.48719403459E-02  0.58802460630E-01  0.10609334925E+02  0.10609503712E+02  0.10000000000E-01 0. -1.
      611    1    3    3    0    0 -0.84496385124E-02 -0.19977653228E-01  0.48648726994E+00  0.48707326639E+00  0.10000000000E-01 0.  1.
</event>
<event>
 7   0  0.6206631E-02  0.9118800E+02  0.7818608E-02  0.1180000E+00
       11   -1    0    0    0    0  0.00000000000E+00  0.00000000000E+00  0.11999999989E+02  0.12000000000E+02  0.51109989000E-03 0.  1.
     -623   -1    0    0    0    0  0.00000000000E+00  0.00000000000E+00  0.42561509872E-11  0.25126700000E+02  0.25126700000E+02 0. -1.
      622    2    1    2    0    0  0.70995805943E-03 -0.68368058232E-03  0.11997697652E+02  0.11998089548E+02  0.96968432544E-01 0.  0.
       11    1    1    2    0    0 -0.31555653514E-03 -0.69407034074E-03  0.16754429164E-02  0.19104035463E-02  0.51109989000E-03 0.  1.
     -623    1    1    2    0    0 -0.39440152428E-03  0.13777509231E-02  0.62689424425E-03  0.25126700049E+02  0.25126700000E+02 0. -1.
     -611    1    3    3    0    0 -0.13218132157E-01  0.24448576676E-01  0.12503548772E+01  0.12507037102E+01  0.10000000000E-01 0. -1.
      611    1    3    3    0    0  0.13928090217E-01 -0.25132257258E-01  0.10747342775E+02  0.10747385838E+02  0.10000000000E-01 0.  1.
</event>
<event>
 7   0  0.6206631E-02  0.9118800E+02  0.7818608E-02  0.1180000E+00
       11   -1    0    0    0    0  0.00000000000E+00  0.00000000000E+00  0.11999999989E+02  0.12000000000E+02  0.51109989000E-03 0.  1.
     -623   -1    0    0    0    0  0.00000000000E+00  0.00000000000E+00  0.42561509872E-11  0.25126700000E+02  0.25126700000E+02 0.  1.
      622    2    1    2    0    0 -0.77022261087E-02 -0.38876328559E-02  0.11885279253E+02  0.11885824886E+02  0.11355993888E+00 0.  0.
       11    1    1    2    0    0  0.75301471823E-02  0.10491554560E-02  0.11392037542E+00  0.11417494034E+00  0.51109989000E-03 0.  1.
     -623    1    1    2    0    0  0.17207892645E-03  0.28384773999E-02  0.80036065827E-03  0.25126700174E+02  0.25126700000E+02 0.  1.
     -611    1    3    3    0    0 -0.31888613456E-01  0.45968961394E-01  0.52910901686E+01  0.52913953926E+01  0.10000000000E-01 0. -1.
      611    1    3    3    0    0  0.24186387347E-01 -0.49856594250E-01  0.65941890844E+01  0.65944294933E+01  0.10000000000E-01 0.  1.
</event>
<event>
 7   0  0.6206631E-02  0.9118800E+02  0.7818608E-02  0.1180000E+00
       11   -1    0    0    0    0  0.00000000000E+00  0.00000000000E+00  0.11999999989E+02  0.12000000000E+02  0.51109989000E-03 0.  1.
     -623   -1    0    0    0    0  0.00000000000E+00  0.00000000000E+00  0.42561509872E-11  0.25126700000E+02  0.25126700000E+02 0.  1.
      622    2    1    2    0    0 -0.29075826425E-01  0.53306018602E-02  0.11825447171E+02  0.11826015994E+02  0.11215921701E+00 0.  0.
       11    1    1    2    0    0  0.14019607680E-01  0.31435016657E-02  0.17338300309E+00  0.17397803881E+00  0.51109989000E-03 0.  1.
     -623    1    1    2    0    0  0.15056218745E-01 -0.84741035259E-02  0.11698155018E-02  0.25126705967E+02  0.25126700000E+02 0.  1.
     -611    1    3    3    0    0 -0.59699678298E-01 -0.26037543693E-01  0.86431579743E+01  0.86434091523E+01  0.10000000000E-01 0.  1.
      611    1    3    3    0    0  0.30623851873E-01  0.31368145553E-01  0.31822891962E+01  0.31826068417E+01  0.10000000000E-01 0. -1.
</event>
<event>
 7   0  0.6206631E-02  0.9118800E+02  0.7818608E-02  0.1180000E+00
       11   -1    0    0    0    0  0.00000000000E+00  0.00000000000E+00  0.11999999989E+02  0.12000000000E+02  0.51109989000E-03 0. -1.
     -623   -1    0    0    0    0  0.00000000000E+00  0.00000000000E+00  0.42561509872E-11  0.25126700000E+02  0.25126700000E+02 0.  1.
      622    2    1    2    0    0  0.21716576965E-01 -0.11715169043E-02  0.11745912242E+02  0.11746519201E+02  0.11741366841E+00 0.  0.
       11    1    1    2    0    0 -0.19944842999E-01 -0.93839809984E-03  0.25269246244E+00  0.25348060902E+00  0.51109989000E-03 0. -1.
     -623    1    1    2    0    0 -0.17717339658E-02  0.21099150041E-02  0.13952848757E-02  0.25126700190E+02  0.25126700000E+02 0.  1.
     -611    1    3    3    0    0  0.26656168384E-01 -0.11542971856E-01  0.11541303776E+02  0.11541344664E+02  0.10000000000E-01 0. -1.
      611    1    3    3    0    0 -0.49395914190E-02  0.10371454952E-01  0.20460846566E+00  0.20517453756E+00  0.10000000000E-01 0.  1.
</event>
<event>
 7   0  0.6206631E-02  0.9118800E+02  0.7818608E-02  0.1180000E+00
       11   -1    0    0    0    0  0.00000000000E+00  0.00000000000E+00  0.11999999989E+02  0.12000000000E+02  0.51109989000E-03 0. -1.
     -623   -1    0    0    0    0  0.00000000000E+00  0.00000000000E+00  0.42561509872E-11  0.25126700000E+02  0.25126700000E+02 0. -1.
      622    2    1    2    0    0  0.12498363263E-01  0.33563138598E-01  0.11255896629E+02  0.11256367087E+02  0.96480004881E-01 0.  0.
       11    1    1    2    0    0 -0.14357374021E-01 -0.29975252436E-01  0.74288927228E+00  0.74363255849E+00  0.51109989000E-03 0. -1.
     -623    1    1    2    0    0  0.18590107577E-02 -0.35878861617E-02  0.12140880371E-02  0.25126700354E+02  0.25126700000E+02 0. -1.
     -611    1    3    3    0    0  0.23944796629E-01 -0.64598884249E-02  0.91313141215E+01  0.91313532769E+01  0.10000000000E-01 0. -1.
      611    1    3    3    0    0 -0.11446433366E-01  0.40023027023E-01  0.21245825073E+01  0.21250138103E+01  0.10000000000E-01 0.  1.
</event>
<event>
 7   0  0.6206631E-02  0.9118800E+02  0.7818608E-02  0.1180000E+00
       11   -1    0    0    0    0  0.00000000000E+00  0.00000000000E+00  0.11999999989E+02  0.12000000000E+02  0.51109989000E-03 0.  1.
     -623   -1    0    0    0    0  0.00000000000E+00  0.00000000000E+00  0.42561509872E-11  0.25126700000E+02  0.25126700000E+02 0.  1.
      622    2    1    2    0    0 -0.97538568381E-02  0.28408202371E-01  0.10569586712E+02  0.10570336570E+02  0.12226933246E+00 0.  0.
       11    1    1    2    0    0  0.75675372811E-02 -0.26227475391E-01  0.14294025019E+01  0.14296632197E+01  0.51109989000E-03 0.  1.
     -623    1    1    2    0    0  0.21863195569E-02 -0.21807269801E-02  0.10107755976E-02  0.25126700210E+02  0.25126700000E+02 0.  1.
     -611    1    3    3    0    0 -0.10718860989E-01  0.84406543360E-02  0.19676342373E+00  0.19748919855E+00  0.10000000000E-01 0. -1.
      611    1    3    3    0    0  0.96500415095E-03  0.19967548035E-01  0.10372823288E+02  0.10372847372E+02  0.10000000000E-01 0.  1.
</event>
<event>
 7   0  0.6206631E-02  0.9118800E+02  0.7818608E-02  0.1180000E+00
       11   -1    0    0    0    0  0.00000000000E+00  0.00000000000E+00  0.11999999989E+02  0.12000000000E+02  0.51109989000E-03 0.  1.
     -623   -1    0    0    0    0  0.00000000000E+00  0.00000000000E+00  0.42561509872E-11  0.25126700000E+02  0.25126700000E+02 0. -1.
      622    2    1    2    0    0  0.44100885166E-02 -0.11261013550E-01  0.79113906097E+01  0.79119383832E+01  0.92311116705E-01 0.  0.
       11    1    1    2    0    0 -0.67553719325E-02  0.83240040638E-02  0.40880472413E+01  0.40880613294E+01  0.51109989000E-03 0.  1.
     -623    1    1    2    0    0  0.23452834159E-02  0.29370094867E-02  0.56213812788E-03  0.25126700287E+02  0.25126700000E+02 0. -1.
     -611    1    3    3    0    0  0.79417098612E-02  0.41632036551E-02  0.17150435674E+00  0.17202949573E+00  0.10000000000E-01 0. -1.
      611    1    3    3    0    0 -0.35316213446E-02 -0.15424217206E-01  0.77398862529E+01  0.77399088875E+01  0.10000000000E-01 0.  1.
</event>
<event>
 7   0  0.6206631E-02  0.9118800E+02  0.7818608E-02  0.1180000E+00
       11   -1    0    0    0    0  0.00000000000E+00  0.00000000000E+00  0.11999999989E+02  0.12000000000E+02  0.51109989000E-03 0.  1.
     -623   -1    0    0    0    0  0.00000000000E+00  0.00000000000E+00  0.42561509872E-11  0.25126700000E+02  0.25126700000E+02 0.  1.
      622    2    1    2    0    0  0.10397947356E-01  0.15371256577E-01  0.10053298619E+02  0.10053868160E+02  0.10539196237E+00 0.  0.
       11    1    1    2    0    0 -0.76582352721E-02 -0.17590795193E-01  0.19460369464E+01  0.19461315841E+01  0.51109989000E-03 0.  1.
     -623    1    1    2    0    0 -0.27397120843E-02  0.22195386162E-02  0.66442412942E-03  0.25126700256E+02  0.25126700000E+02 0.  1.
     -611    1    3    3    0    0 -0.22310014424E-01  0.60538302991E-03  0.87574700664E+01  0.87575042146E+01  0.10000000000E-01 0.  1.
      611    1    3    3    0    0  0.32707961781E-01  0.14765873547E-01  0.12958285521E+01  0.12963639451E+01  0.10000000000E-01 0. -1.
</event>
<event>
 7   0  0.6206631E-02  0.9118800E+02  0.7818608E-02  0.1180000E+00
       11   -1    0    0    0    0  0.00000000000E+00  0.00000000000E+00  0.11999999989E+02  0.12000000000E+02  0.51109989000E-03 0.  1.
     -623   -1    0    0    0    0  0.00000000000E+00  0.00000000000E+00  0.42561509872E-11  0.25126700000E+02  0.25126700000E+02 0. -1.
      622    2    1    2    0    0  0.35648423414E-01  0.31861570673E-01  0.81005248486E+01  0.81022349195E+01  0.15944246120E+00 0.  0.
       11    1    1    2    0    0 -0.26231107194E-01 -0.34491379313E-01  0.38975221890E+01  0.38977631022E+01  0.51109989000E-03 0.  1.
     -623    1    1    2    0    0 -0.94173162192E-02  0.26298086398E-02  0.19529515657E-02  0.25126701978E+02  0.25126700000E+02 0. -1.
     -611    1    3    3    0    0 -0.70981580763E-03  0.99572611083E-03  0.74042774389E+01  0.74042842927E+01  0.10000000000E-01 0.  1.
      611    1    3    3    0    0  0.36358239221E-01  0.30865844562E-01  0.69624740969E+00  0.69795062678E+00  0.10000000000E-01 0. -1.
</event>
<event>
 6   0  0.6206631E-02  0.9118800E+02  0.7818608E-02  0.1180000E+00
       11   -1    0    0    0    0  0.00000000000E+00  0.00000000000E+00  0.11999999989E+02  0.12000000000E+02  0.51109989000E-03 0. -1.
     -623   -1    0    0    0    0  0.00000000000E+00  0.00000000000E+00  0.42561509872E-11  0.25126700000E+02  0.25126700000E+02 0. -1.
       11    1    1    2    0    0  0.11190148617E-01  0.81212779986E-01  0.76586022292E+01  0.76590410041E+01  0.51109989000E-03 0. -1.
     -623    1    1    2    0    0  0.26651084727E-01 -0.43649998425E-01  0.55942200215E-02  0.25126752671E+02  0.25126700000E+02 0. -1.
     -611    1    1    2    0    0  0.42539077157E-01 -0.23438632239E-01  0.36286432737E+01  0.36289820819E+01  0.10000000000E-01 0. -1.
      611    1    1    2    0    0 -0.80380310501E-01 -0.14124149322E-01  0.70716026613E+00  0.71192424309E+00  0.10000000000E-01 0.  1.
</event>
<event>
 7   0  0.6206631E-02  0.9118800E+02  0.7818608E-02  0.1180000E+00
       11   -1    0    0    0    0  0.00000000000E+00  0.00000000000E+00  0.11999999989E+02  0.12000000000E+02  0.51109989000E-03 0.  1.
     -623   -1    0    0    0    0  0.00000000000E+00  0.00000000000E+00  0.42561509872E-11  0.25126700000E+02  0.25126700000E+02 0.  1.
      622    2    1    2    0    0  0.41250802459E-01  0.36264531755E-01  0.70572194563E+01  0.70591604460E+01  0.15615057805E+00 0.  0.
       11    1    1    2    0    0 -0.43425914230E-01 -0.56633799999E-01  0.49403156102E+01  0.49408310826E+01  0.51109989000E-03 0.  1.
     -623    1    1    2    0    0  0.21751117703E-02  0.20369268244E-01  0.24649225820E-02  0.25126708471E+02  0.25126700000E+02 0.  1.
     -611    1    3    3    0    0 -0.31899030710E-01  0.28074071048E-01  0.54972891679E+01  0.54974624962E+01  0.10000000000E-01 0.  1.
      611    1    3    3    0    0  0.73149833169E-01  0.81904607063E-02  0.15599302885E+01  0.15616979499E+01  0.10000000000E-01 0. -1.
</event>
<event>
 7   0  0.6206631E-02  0.9118800E+02  0.7818608E-02  0.1180000E+00
       11   -1    0    0    0    0  0.00000000000E+00  0.00000000000E+00  0.11999999989E+02  0.12000000000E+02  0.51109989000E-03 0. -1.
     -623   -1    0    0    0    0  0.00000000000E+00  0.00000000000E+00  0.42561509872E-11  0.25126700000E+02  0.25126700000E+02 0. -1.
      622    2    1    2    0    0 -0.10851983557E-02 -0.40806764074E-01  0.52728879800E+01  0.52739131308E+01  0.95633114552E-01 0.  0.
       11    1    1    2    0    0  0.15792794643E-02  0.41690520860E-01  0.67259574104E+01  0.67260868223E+01  0.51109989000E-03 0. -1.
     -623    1    1    2    0    0 -0.49408110859E-03 -0.88375678622E-03  0.11545988291E-02  0.25126700047E+02  0.25126700000E+02 0. -1.
     -611    1    3    3    0    0 -0.28845810479E-01 -0.48686289448E-01  0.18577956276E+01  0.18586842199E+01  0.10000000000E-01 0.  1.
      611    1    3    3    0    0  0.27760612123E-01  0.78795253738E-02  0.34150923524E+01  0.34152289109E+01  0.10000000000E-01 0. -1.
</event>
<event>
 7   0  0.6206631E-02  0.9118800E+02  0.7818608E-02  0.1180000E+00
       11   -1    0    0    0    0  0.00000000000E+00  0.00000000000E+00  0.11999999989E+02  0.12000000000E+02  0.51109989000E-03 0.  1.
     -623   -1    0    0    0    0  0.00000000000E+00  0.00000000000E+00  0.42561509872E-11  0.25126700000E+02  0.25126700000E+02 0.  1.
      622    2    1    2    0    0  0.28058977140E-02 -0.47292451803E-02  0.11008313086E+02  0.11008723669E+02  0.94918815447E-01 0.  0.
       11    1    1    2    0    0 -0.60656247393E-02  0.17246216512E-01  0.99110426631E+00  0.99127299555E+00  0.51109989000E-03 0.  1.
     -623    1    1    2    0    0  0.32597270253E-02 -0.12516971331E-01  0.58263722180E-03  0.25126703336E+02  0.25126700000E+02 0.  1.
     -611    1    3    3    0    0 -0.14844575030E-01 -0.61242646097E-02  0.45745014082E+00  0.45784112896E+00  0.10000000000E-01 0. -1.
      611    1    3    3    0    0  0.17650472744E-01  0.13950194294E-02  0.10550862945E+02  0.10550882540E+02  0.10000000000E-01 0.  1.
</event>
<event>
 7   0  0.6206631E-02  0.9118800E+02  0.7818608E-02  0.1180000E+00
       11   -1    0    0    0    0  0.00000000000E+00  0.00000000000E+00  0.11999999989E+02  0.12000000000E+02  0.51109989000E-03 0. -1.
     -623   -1    0    0    0    0  0.00000000000E+00  0.00000000000E+00  0.42561509872E-11  0.25126700000E+02  0.25126700000E+02 0. -1.
      622    2    1    2    0    0 -0.15807452356E-02  0.31907322925E-02  0.11151355131E+02  0.11151757503E+02  0.94665101765E-01 0.  0.
       11    1    1    2    0    0 -0.14750696965E-03 -0.16955286644E-02  0.84824052831E+00  0.84824238969E+00  0.51109989000E-03 0. -1.
     -623    1    1    2    0    0  0.17282522052E-02 -0.14952036281E-02  0.40433025812E-03  0.25126700107E+02  0.25126700000E+02 0. -1.
     -611    1    3    3    0    0  0.27781970331E-01  0.23974710785E-01  0.89858817779E+01  0.89859622719E+01  0.10000000000E-01 0. -1.
      611    1    3    3    0    0 -0.29362715566E-01 -0.20783978493E-01  0.21654733526E+01  0.21657952313E+01  0.10000000000E-01 0.  1.
</event>
<event>
 7   0  0.6206631E-02  0.9118800E+02  0.7818608E-02  0.1180000E+00
       11   -1    0    0    0    0  0.00000000000E+00  0.00000000000E+00  0.11999999989E+02  0.12000000000E+02  0.51109989000E-03 0. -1.
     -623   -1    0    0    0    0  0.00000000000E+00  0.00000000000E+00  0.42561509872E-11  0.25126700000E+02  0.25126700000E+02 0.  1.
      622    2    1    2    0    0 -0.97653702273E-01 -0.60489295760E-01  0.96219400187E+01  0.96231910442E+01  0.10431179281E+00 0.  0.
       11    1    1    2    0    0  0.87428218400E-01  0.66504738358E-01  0.23742660555E+01  0.23768058686E+01  0.51109989000E-03 0. -1.
     -623    1    1    2    0    0  0.10225483874E-01 -0.60154425978E-02  0.37939149397E-02  0.25126703087E+02  0.25126700000E+02 0.  1.
     -611    1    3    3    0    0 -0.78562642295E-01  0.14446862328E-02  0.34819099499E+01  0.34828108009E+01  0.10000000000E-01 0.  1.
      611    1    3    3    0    0 -0.19091059978E-01 -0.61933981993E-01  0.61400300688E+01  0.61403802433E+01  0.10000000000E-01 0. -1.
</event>
<event>
 7   0  0.6206631E-02  0.9118800E+02  0.7818608E-02  0.1180000E+00
       11   -1    0    0    0    0  0.00000000000E+00  0.00000000000E+00  0.11999999989E+02  0.12000000000E+02  0.51109989000E-03 0.  1.
     -623   -1    0    0    0    0  0.00000000000E+00  0.00000000000E+00  0.42561509872E-11  0.25126700000E+02  0.25126700000E+02 0. -1.
      622    2    1    2    0    0  0.11328979542E-01 -0.43500705887E-01  0.11777935553E+02  0.11778432193E+02  0.98378743344E-01 0.  0.
       11    1    1    2    0    0  0.29734529500E-01  0.24628764699E-01  0.21813566815E+00  0.22152685896E+00  0.51109989000E-03 0.  1.
     -623    1    1    2    0    0 -0.41063509042E-01  0.18871941188E-01  0.39287682999E-02  0.25126740948E+02  0.25126700000E+02 0. -1.
     -611    1    3    3    0    0  0.16825123345E-02 -0.71607022208E-01  0.95806377314E+01  0.95809106945E+01  0.10000000000E-01 0.  1.
      611    1    3    3    0    0  0.96464672074E-02  0.28106316321E-01  0.21972978213E+01  0.21975214981E+01  0.10000000000E-01 0.  1.
</event>
<event>
 7   0  0.6206631E-02  0.9118800E+02  0.7818608E-02  0.1180000E+00
       11   -1    0    0    0    0  0.00000000000E+00  0.00000000000E+00  0.11999999989E+02  0.12000000000E+02  0.51109989000E-03 0. -1.
     -623   -1    0    0    0    0  0.00000000000E+00  0.00000000000E+00  0.42561509872E-11  0.25126700000E+02  0.25126700000E+02 0. -1.
      622    2    1    2    0    0 -0.19766017665E-03 -0.17984534473E-02  0.11461793546E+02  0.11461947127E+02  0.59307371933E-01 0.  0.
       11    1    1    2    0    0  0.25131610629E-02 -0.30568591870E-02  0.53803750090E+00  0.53805229669E+00  0.51109989000E-03 0. -1.
     -623    1    1    2    0    0 -0.23155008862E-02  0.48553126343E-02  0.16894169011E-03  0.25126700576E+02  0.25126700000E+02 0. -1.
     -611    1    3    3    0    0  0.17117655681E-01 -0.10732292605E-01  0.95741362267E+01  0.95741627667E+01  0.10000000000E-01 0. -1.
      611    1    3    3    0    0 -0.17315315858E-01  0.89338391572E-02  0.18876573198E+01  0.18877843602E+01  0.10000000000E-01 0. -1.
</event>
<event>
 7   0  0.6206631E-02  0.9118800E+02  0.7818608E-02  0.1180000E+00
       11   -1    0    0    0    0  0.00000000000E+00  0.00000000000E+00  0.11999999989E+02  0.12000000000E+02  0.51109989000E-03 0. -1.
     -623   -1    0    0    0    0  0.00000000000E+00  0.00000000000E+00  0.42561509872E-11  0.25126700000E+02  0.25126700000E+02 0. -1.
      622    2    1    2    0    0  0.32507309406E-03  0.19992698090E-02  0.11997883745E+02  0.11998454618E+02  0.11702463833E+00 0.  0.
       11    1    1    2    0    0  0.14580680253E-02  0.13964764340E-04 -0.10084802904E-04  0.15451479615E-02  0.51109989000E-03 0. -1.
     -623    1    1    2    0    0 -0.17831411194E-02 -0.20132345733E-02  0.21263290728E-02  0.25126700234E+02  0.25126700000E+02 0. -1.
     -611    1    3    3    0    0  0.37026162444E-01  0.37834805879E-01  0.86026668925E+01  0.86028355833E+01  0.10000000000E-01 0. -1.
      611    1    3    3    0    0 -0.36701089350E-01 -0.35835536071E-01  0.33952168523E+01  0.33956190349E+01  0.10000000000E-01 0.  1.
</event>
<event>
 7   0  0.6206631E-02  0.9118800E+02  0.7818608E-02  0.1180000E+00
       11   -1    0    0    0    0  0.00000000000E+00  0.00000000000E+00  0.11999999989E+02  0.12000000000E+02  0.51109989000E-03 0. -1.
     -623   -1    0    0    0    0  0.00000000000E+00  0.00000000000E+00  0.42561509872E-11  0.25126700000E+02  0.25126700000E+02 0.  1.
      622    2    1    2    0    0 -0.29737712409E-01 -0.18491818530E-02  0.11782558262E+02  0.11783025971E+02  0.10066819429E+00 0.  0.
       11    1    1    2    0    0  0.29871099126E-01  0.29661557689E-02  0.21488676106E+00  0.21697387387E+00  0.51109989000E-03 0. -1.
     -623    1    1    2    0    0 -0.13338671709E-03 -0.11169739159E-02  0.25549660382E-02  0.25126700155E+02  0.25126700000E+02 0.  1.
     -611    1    3    3    0    0 -0.23705788970E-01  0.23093784650E-01  0.10863765405E+02  0.10863820417E+02  0.10000000000E-01 0. -1.
      611    1    3    3    0    0 -0.60319234388E-02 -0.24942966503E-01  0.91879285751E+00  0.91920555410E+00  0.10000000000E-01 0.  1.
</event>
<event>
 7   0  0.6206631E-02  0.9118800E+02  0.7818608E-02  0.1180000E+00
       11   -1    0    0    0    0  0.00000000000E+00  0.00000000000E+00  0.11999999989E+02  0.12000000000E+02  0.51109989000E-03 0.  1.
     -623   -1    0    0    0    0  0.00000000000E+00  0.00000000000E+00  0.42561509872E-11  0.25126700000E+02  0.25126700000E+02 0.  1.
      622    2    1    2    0    0  0.67029554948E-01 -0.32433327156E-02  0.40919752138E+01  0.40940391081E+01  0.11131751010E+00 0.  0.
       11    1    1    2    0    0 -0.61228601527E-01  0.21462073427E-01  0.79056872602E+01  0.79059535086E+01  0.51109989000E-03 0.  1.
     -623    1    1    2    0    0 -0.58009534207E-02 -0.18218740712E-01  0.23375151380E-02  0.25126707383E+02  0.25126700000E+02 0.  1.
     -611    1    3    3    0    0  0.47122399055E-01 -0.52216817373E-01  0.28713279876E+01  0.28722067350E+01  0.10000000000E-01 0.  1.
      611    1    3    3    0    0  0.19907155893E-01  0.48973484657E-01  0.12206472262E+01  0.12218323731E+01  0.10000000000E-01 0. -1.
</event>
<event>
 7   0  0.6206631E-02  0.9118800E+02  0.7818608E-02  0.1180000E+00
       11   -1    0    0    0    0  0.00000000000E+00  0.00000000000E+00  0.11999999989E+02  0.12000000000E+02  0.51109989000E-03 0.  1.
     -623   -1    0    0    0    0  0.00000000000E+00  0.00000000000E+00  0.42561509872E-11  0.25126700000E+02  0.25126700000E+02 0.  1.
      622    2    1    2    0    0 -0.45422266515E-01 -0.31868594290E-01  0.11081984120E+02  0.11082680027E+02  0.11111146631E+00 0.  0.
       11    1    1    2    0    0  0.36420074696E-01  0.37432976560E-01  0.91582954626E+00  0.91731764869E+00  0.51109989000E-03 0.  1.
     -623    1    1    2    0    0  0.90021918186E-02 -0.55643822695E-02  0.21863225281E-02  0.25126702324E+02  0.25126700000E+02 0.  1.
     -611    1    3    3    0    0 -0.32520029567E-01  0.21416225644E-01  0.15141490108E+01  0.15146826182E+01  0.10000000000E-01 0. -1.
      611    1    3    3    0    0 -0.12902236948E-01 -0.53284819934E-01  0.95678351095E+01  0.95679974092E+01  0.10000000000E-01 0.  1.
</event>
<event>
 7   0  0.6206631E-02  0.9118800E+02  0.7818608E-02  0.1180000E+00
       11   -1    0    0    0    0  0.00000000000E+00  0.00000000000E+00  0.11999999989E+02  0.12000000000E+02  0.51109989000E-03 0.  1.
     -623   -1    0    0    0    0  0.00000000000E+00  0.00000000000E+00  0.42561509872E-11  0.25126700000E+02  0.25126700000E+02 0.  1.
      622    2    1    2    0    0 -0.10220696239E-01 -0.61236503736E-02  0.11549950133E+02  0.11550281765E+02  0.86711169630E-01 0.  0.
       11    1    1    2    0    0  0.84725934659E-02  0.26158777747E-02  0.44963020761E+00  0.44971792546E+00  0.51109989000E-03 0.  1.
     -623    1    1    2    0    0  0.17481027736E-02  0.35077725989E-02  0.41964867009E-03  0.25126700309E+02  0.25126700000E+02 0.  1.
     -611    1    3    3    0    0 -0.32526839413E-01  0.18979891498E-01  0.90745664747E+01  0.90746501275E+01  0.10000000000E-01 0.  1.
      611    1    3    3    0    0  0.22306143173E-01 -0.25103541871E-01  0.24753836581E+01  0.24756316379E+01  0.10000000000E-01 0.  1.
</event>
<event>
 7   0  0.6206631E-02  0.9118800E+02  0.7818608E-02  0.1180000E+00
       11   -1    0    0    0    0  0.00000000000E+00  0.00000000000E+00  0.11999999989E+02  0.12000000000E+02  0.51109989000E-03 0. -1.
     -623   -1    0    0    0    0  0.00000000000E+00  0.00000000000E+00  0.42561509872E-11  0.25126700000E+02  0.25126700000E+02 0.  1.
      622    2    1    2    0    0  0.30038261930E-03 -0.12846281330E-02  0.11998751331E+02  0.11999113074E+02  0.93162876757E-01 0.  0.
       11    1    1    2    0    0 -0.62981172463E-03 -0.19627421299E-03  0.30019067761E-03  0.88686185159E-03  0.51109989000E-03 0. -1.
     -623    1    1    2    0    0  0.32942910534E-03  0.14809023460E-02  0.94846710486E-03  0.25126700064E+02  0.25126700000E+02 0.  1.
     -611    1    3    3    0    0 -0.35981206461E-02  0.43340041857E-01  0.44989165052E+01  0.44991378092E+01  0.10000000000E-01 0. -1.
      611    1    3    3    0    0  0.38985032654E-02 -0.44624669990E-01  0.74998348262E+01  0.74999752653E+01  0.10000000000E-01 0. -1.
</event>
<event>
 7   0  0.6206631E-02  0.9118800E+02  0.7818608E-02  0.1180000E+00
       11   -1    0    0    0    0  0.00000000000E+00  0.00000000000E+00  0.11999999989E+02  0.12000000000E+02  0.51109989000E-03 0.  1.
     -623   -1    0    0    0    0  0.00000000000E+00  0.00000000000E+00  0.42561509872E-11  0.25126700000E+02  0.25126700000E+02 0.  1.
      622    2    1    2    0    0 -0.84536517694E-01 -0.30665751042E-01  0.93655257704E+01  0.93664716548E+01  0.98140167022E-01 0.  0.
       11    1    1    2    0    0  0.76374749018E-01  0.14019790125E-01  0.26323763299E+01  0.26335214183E+01  0.51109989000E-03 0.  1.
     -623    1    1    2    0    0  0.81617686752E-02  0.16645960916E-01  0.20978887746E-02  0.25126706927E+02  0.25126700000E+02 0.  1.
     -611    1    3    3    0    0 -0.15684562505E-01 -0.52213870287E-01  0.28511756215E+01  0.28517143473E+01  0.10000000000E-01 0.  1.
      611    1    3    3    0    0 -0.68851955189E-01  0.21548119246E-01  0.65143501489E+01  0.65147573076E+01  0.10000000000E-01 0. -1.
</event>
<event>
 7   0  0.6206631E-02  0.9118800E+02  0.7818608E-02  0.1180000E+00
       11   -1    0    0    0    0  0.00000000000E+00  0.00000000000E+00  0.11999999989E+02  0.12000000000E+02  0.51109989000E-03 0. -1.
     -623   -1    0    0    0    0  0.00000000000E+00  0.00000000000E+00  0.42561509872E-11  0.25126700000E+02  0.25126700000E+02 0. -1.
      622    2    1    2    0    0 -0.14638805311E-01 -0.24686066113E-02  0.97727303854E+01  0.97732839942E+01  0.10295851821E+00 0.  0.
       11    1    1    2    0    0  0.10560438812E-01  0.87109162613E-02  0.22266727527E+01  0.22267148923E+01  0.51109989000E-03 0. -1.
     -623    1    1    2    0    0  0.40783664997E-02 -0.62423096500E-02  0.59685100850E-03  0.25126701113E+02  0.25126700000E+02 0. -1.
     -611    1    3    3    0    0 -0.37376079080E-01 -0.13524276563E-01  0.16528751859E+01  0.16533832760E+01  0.10000000000E-01 0. -1.
      611    1    3    3    0    0  0.22737273769E-01  0.11055669952E-01  0.81198551995E+01  0.81199007182E+01  0.10000000000E-01 0. -1.
</event>
<event>
 7   0  0.6206631E-02  0.9118800E+02  0.7818608E-02  0.1180000E+00
       11   -1    0    0    0    0  0.00000000000E+00  0.00000000000E+00  0.11999999989E+02  0.12000000000E+02  0.51109989000E-03 0.  1.
     -623   -1    0    0    0    0  0.00000000000E+00  0.00000000000E+00  0.42561509872E-11  0.25126700000E+02  0.25126700000E+02 0.  1.
      622    2    1    2    0    0 -0.76299453761E-01 -0.32035197756E-01  0.69506777395E+01  0.69519117264E+01  0.10152710377E+00 0.  0.
       11    1    1    2    0    0  0.63281470398E-01  0.28218340320E-01  0.50476089958E+01  0.50480845530E+01  0.51109989000E-03 0.  1.
     -623    1    1    2    0    0  0.13017983362E-01  0.38168574355E-02  0.17132538675E-02  0.25126703721E+02  0.25126700000E+02 0.  1.
     -611    1    3    3    0    0 -0.42855602228E-01  0.33669782562E-01  0.34341211935E+01  0.34345681866E+01  0.10000000000E-01 0.  1.
      611    1    3    3    0    0 -0.33443851532E-01 -0.65704980318E-01  0.35165565460E+01  0.35173435397E+01  0.10000000000E-01 0. -1.
</event>
<event>
 7   0  0.6206631E-02  0.9118800E+02  0.7818608E-02  0.1180000E+00
       11   -1    0    0    0    0  0.00000000000E+00  0.00000000000E+00  0.11999999989E+02  0.12000000000E+02  0.51109989000E-03 0.  1.
     -623   -1    0    0    0    0  0.00000000000E+00  0.00000000000E+00  0.42561509872E-11  0.25126700000E+02  0.25126700000E+02 0.  1.
      622    2    1    2    0    0  0.14018102775E-01 -0.29415911763E-01  0.59223282078E+01  0.59234177706E+01  0.10883419127E+00 0.  0.
       11    1    1    2    0    0 -0.10124996571E-01  0.28028093108E-01  0.60765087658E+01  0.60765818625E+01  0.51109989000E-03 0.  1.
     -623    1    1    2    0    0 -0.38931062038E-02  0.13878186556E-02  0.11630154648E-02  0.25126700367E+02  0.25126700000E+02 0.  1.
     -611    1    3    3    0    0 -0.19369998211E-02  0.37777955489E-01  0.13835386773E+01  0.13840918313E+01  0.10000000000E-01 0.  1.
      611    1    3    3    0    0  0.15955102596E-01 -0.67193867252E-01  0.45387895305E+01  0.45393259393E+01  0.10000000000E-01 0. -1.
</event>
<event>
 7   0  0.6206631E-02  0.9118800E+02  0.7818608E-02  0.1180000E+00
       11   -1    0    0    0    0  0.00000000000E+00  0.00000000000E+00  0.11999999989E+02  0.12000000000E+02  0.51109989000E-03 0.  1.
     -623   -1    0    0    0    0  0.00000000000E+00  0.00000000000E+00  0.42561509872E-11  0.25126700000E+02  0.25126700000E+02 0.  1.
      622    2    1    2    0    0 -0.92841761887E-02 -0.64983214090E-02  0.11812465673E+02  0.11812885028E+02  0.98888775428E-01 0.  0.
       11    1    1    2    0    0  0.99994146925E-03  0.15259436988E-01  0.18648541604E+00  0.18711205712E+00  0.51109989000E-03 0.  1.
     -623    1    1    2    0    0  0.82842347195E-02 -0.87611155786E-02  0.10489003569E-02  0.25126702915E+02  0.25126700000E+02 0.  1.
     -611    1    3    3    0    0  0.34280933834E-01  0.91819280185E-02  0.22504546974E+01  0.22507567251E+01  0.10000000000E-01 0.  1.
      611    1    3    3    0    0 -0.43565110023E-01 -0.15680249427E-01  0.95620109753E+01  0.95621283028E+01  0.10000000000E-01 0. -1.
</event>
<event>
 7   0  0.6206631E-02  0.9118800E+02  0.7818608E-02  0.1180000E+00
       11   -1    0    0    0    0  0.00000000000E+00  0.00000000000E+00  0.11999999989E+02  0.12000000000E+02  0.51109989000E-03 0. -1.
     -623   -1    0    0    0    0  0.00000000000E+00  0.00000000000E+00  0.42561509872E-11  0.25126700000E+02  0.25126700000E+02 0.  1.
      622    2    1    2    0    0  0.31004091616E-02  0.25693695847E-01  0.11623396903E+02  0.11623713319E+02  0.81767855364E-01 0.  0.
       11    1    1    2    0    0 -0.47478794506E-01 -0.10490518719E+00  0.35805515140E+00  0.37611578921E+00  0.51109989000E-03 0. -1.
     -623    1    1    2    0    0  0.44378385345E-01  0.79211491340E-01  0.18547934946E-01  0.25126870892E+02  0.25126700000E+02 0.  1.
     -611    1    3    3    0    0  0.21177254356E-01 -0.95030976367E-02  0.13572907365E+01  0.13575260323E+01  0.10000000000E-01 0.  1.
      611    1    3    3    0    0 -0.18076845194E-01  0.35196793484E-01  0.10266106166E+02  0.10266187287E+02  0.10000000000E-01 0. -1.
</event>
<event>
 7   0  0.6206631E-02  0.9118800E+02  0.7818608E-02  0.1180000E+00
       11   -1    0    0    0    0  0.00000000000E+00  0.00000000000E+00  0.11999999989E+02  0.12000000000E+02  0.51109989000E-03 0. -1.
     -623   -1    0    0    0    0  0.00000000000E+00  0.00000000000E+00  0.42561509872E-11  0.25126700000E+02  0.25126700000E+02 0.  1.
      622    2    1    2    0    0 -0.53999921633E-01 -0.12822880050E-01  0.91057271688E+01  0.91067956422E+01  0.12798116553E+00 0.  0.
       11    1    1    2    0    0  0.11284692316E-01 -0.21477732809E-01  0.28930428314E+01  0.28931446080E+01  0.51109989000E-03 0. -1.
     -623    1    1    2    0    0  0.42715229317E-01  0.34300612859E-01  0.12299889747E-02  0.25126759750E+02  0.25126700000E+02 0.  1.
     -611    1    3    3    0    0 -0.47912342949E-01  0.35578361144E-01  0.76084662721E+01  0.76087068827E+01  0.10000000000E-01 0. -1.
      611    1    3    3    0    0 -0.60875786842E-02 -0.48401241194E-01  0.14972608966E+01  0.14980887595E+01  0.10000000000E-01 0.  1.
</event>
<event>
 7   0  0.6206631E-02  0.9118800E+02  0.7818608E-02  0.1180000E+00
       11   -1    0    0    0    0  0.00000000000E+00  0.00000000000E+00  0.11999999989E+02  0.12000000000E+02  0.51109989000E-03 0.  1.
     -623   -1    0    0    0    0  0.00000000000E+00  0.00000000000E+00  0.42561509872E-11  0.25126700000E+02  0.25126700000E+02 0.  1.
      622    2    1    2    0    0 -0.16596177106E-01 -0.31741155841E-02  0.11931219676E+02  0.11931891094E+02  0.12544570074E+00 0.  0.
       11    1    1    2    0    0  0.93340272609E-02  0.11154869258E-01  0.66533279891E-01  0.68106488158E-01  0.51109989000E-03 0.  1.
     -623    1    1    2    0    0  0.72621498454E-02 -0.79807536739E-02  0.22470331561E-02  0.25126702417E+02  0.25126700000E+02 0.  1.
     -611    1    3    3    0    0  0.26875426862E-01 -0.69142321201E-02  0.74742527259E+00  0.74800710777E+00  0.10000000000E-01 0. -1.
      611    1    3    3    0    0 -0.43471603969E-01  0.37401165361E-02  0.11183794403E+02  0.11183883987E+02  0.10000000000E-01 0.  1.
</event>
<event>
 7   0  0.6206631E-02  0.9118800E+02  0.7818608E-02  0.1180000E+00
       11   -1    0    0    0    0  0.00000000000E+00  0.00000000000E+00  0.11999999989E+02  0.12000000000E+02  0.51109989000E-03 0.  1.
     -623   -1    0    0    0    0  0.00000000000E+00  0.00000000000E+00  0.42561509872E-11  0.25126700000E+02  0.25126700000E+02 0. -1.
      622    2    1    2    0    0 -0.13317741653E-01  0.29768320205E-01  0.10383011619E+02  0.10383327047E+02  0.74072699267E-01 0.  0.
       11    1    1    2    0    0  0.14795327620E-01 -0.25992886436E-01  0.16163958566E+01  0.16166726194E+01  0.51109989000E-03 0.  1.
     -623    1    1    2    0    0 -0.14775859673E-02 -0.37754337691E-02  0.59251376324E-03  0.25126700334E+02  0.25126700000E+02 0. -1.
     -611    1    3    3    0    0 -0.31330766633E-01 -0.10734537501E-01  0.37397975289E+01  0.37399575404E+01  0.10000000000E-01 0.  1.
      611    1    3    3    0    0  0.18013024980E-01  0.40502857706E-01  0.66432140899E+01  0.66433695062E+01  0.10000000000E-01 0.  1.
</event>
<event>
 7   0  0.6206631E-02  0.9118800E+02  0.7818608E-02  0.1180000E+00
       11   -1    0    0    0    0  0.00000000000E+00  0.00000000000E+00  0.11999999989E+02  0.12000000000E+02  0.51109989000E-03 0.  1.
     -623   -1    0    0    0    0  0.00000000000E+00  0.00000000000E+00  0.42561509872E-11  0.25126700000E+02  0.25126700000E+02 0.  1.
      622    2    1    2    0    0  0.13029725002E-01  0.10357018319E-01  0.84873562969E+00  0.85351416562E+00  0.88640962597E-01 0.  0.
       11    1    1    2    0    0  0.10554722049E-01  0.15941643295E+00  0.11144755266E+02  0.11145900376E+02  0.51109989000E-03 0.  1.
     -623    1    1    2    0    0 -0.23584447050E-01 -0.16977345127E+00  0.65090939168E-02  0.25127285458E+02  0.25126700000E+02 0.  1.
     -611    1    3    3    0    0  0.42682668719E-01  0.15384048385E-01  0.69468405714E+00  0.69623589278E+00  0.10000000000E-01 0.  1.
      611    1    3    3    0    0 -0.29652943717E-01 -0.50270300662E-02  0.15405157255E+00  0.15727827284E+00  0.10000000000E-01 0. -1.
</event>
<event>
 7   0  0.6206631E-02  0.9118800E+02  0.7818608E-02  0.1180000E+00
       11   -1    0    0    0    0  0.00000000000E+00  0.00000000000E+00  0.11999999989E+02  0.12000000000E+02  0.51109989000E-03 0.  1.
     -623   -1    0    0    0    0  0.00000000000E+00  0.00000000000E+00  0.42561509872E-11  0.25126700000E+02  0.25126700000E+02 0. -1.
      622    2    1    2    0    0  0.39764395021E-02  0.14232719989E-01  0.94885994266E+01  0.94888813759E+01  0.71640113862E-01 0.  0.
       11    1    1    2    0    0 -0.33064218321E-02 -0.15399651598E-01  0.25110691367E+01  0.25111185859E+01  0.51109989000E-03 0.  1.
     -623    1    1    2    0    0 -0.67001766997E-03  0.11669316090E-02  0.33142583310E-03  0.25126700038E+02  0.25126700000E+02 0. -1.
     -611    1    3    3    0    0  0.29999721116E-01 -0.11724382991E-01  0.35670764443E+01  0.35672358773E+01  0.10000000000E-01 0.  1.
      611    1    3    3    0    0 -0.26023281614E-01  0.25957102981E-01  0.59215229822E+01  0.59216454986E+01  0.10000000000E-01 0. -1.
</event>
<event>
 6   0  0.6206631E-02  0.9118800E+02  0.7818608E-02  0.1180000E+00
       11   -1    0    0    0    0  0.00000000000E+00  0.00000000000E+00  0.11999999989E+02  0.12000000000E+02  0.51109989000E-03 0. -1.
     -623   -1    0    0    0    0  0.00000000000E+00  0.00000000000E+00  0.42561509872E-11  0.25126700000E+02  0.25126700000E+02 0.  1.
       11    1    1    2    0    0 -0.48296571048E-03  0.12067528626E-02  0.25193088457E-01  0.25231774362E-01  0.51109989000E-03 0. -1.
     -623    1    1    2    0    0  0.40044318638E-02 -0.44869004465E-02  0.17718518890E-02  0.25126700782E+02  0.25126700000E+02 0.  1.
     -611    1    1    2    0    0 -0.25668042881E-02 -0.86050113891E-01  0.88892110751E+01  0.88896335553E+01  0.10000000000E-01 0. -1.
      611    1    1    2    0    0 -0.95466186518E-03  0.89330261475E-01  0.30838239737E+01  0.30851338881E+01  0.10000000000E-01 0.  1.
</event>
<event>
 7   0  0.6206631E-02  0.9118800E+02  0.7818608E-02  0.1180000E+00
       11   -1    0    0    0    0  0.00000000000E+00  0.00000000000E+00  0.11999999989E+02  0.12000000000E+02  0.51109989000E-03 0.  1.
     -623   -1    0    0    0    0  0.00000000000E+00  0.00000000000E+00  0.42561509872E-11  0.25126700000E+02  0.25126700000E+02 0.  1.
      622    2    1    2    0    0 -0.18543747193E-01 -0.42164312737E-01  0.10734132378E+02  0.10734745181E+02  0.10504523360E+00 0.  0.
       11    1    1    2    0    0  0.25737620299E-01  0.13037395027E-01  0.12649077930E+01  0.12652368888E+01  0.51109989000E-03 0.  1.
     -623    1    1    2    0    0 -0.71938731066E-02  0.29126917710E-01  0.95981844189E-03  0.25126717930E+02  0.25126700000E+02 0.  1.
     -611    1    3    3    0    0 -0.52591969311E-01 -0.53311873950E-01  0.62018680810E+01  0.62023282536E+01  0.10000000000E-01 0.  1.
      611    1    3    3    0    0  0.34048222118E-01  0.11147561213E-01  0.45322642968E+01  0.45324169276E+01  0.10000000000E-01 0.  1.
</event>
<event>
 7   0  0.6206631E-02  0.9118800E+02  0.7818608E-02  0.1180000E+00
       11   -1    0    0    0    0  0.00000000000E+00  0.00000000000E+00  0.11999999989E+02  0.12000000000E+02  0.51109989000E-03 0. -1.
     -623   -1    0    0    0    0  0.00000000000E+00  0.00000000000E+00  0.42561509872E-11  0.25126700000E+02  0.25126700000E+02 0. -1.
      622    2    1    2    0    0 -0.15347147665E-01  0.11695239462E-01  0.11820504485E+02  0.11821023244E+02  0.10905013220E+00 0.  0.
       11    1    1    2    0    0  0.16631479264E-01 -0.13270267546E-01  0.17770666745E+00  0.17897661015E+00  0.51109989000E-03 0. -1.
     -623    1    1    2    0    0 -0.12843315982E-02  0.15750280842E-02  0.17888362497E-02  0.25126700146E+02  0.25126700000E+02 0. -1.
     -611    1    3    3    0    0 -0.27511331266E-01  0.49937310968E-01  0.92942656642E+01  0.92944459139E+01  0.10000000000E-01 0. -1.
      611    1    3    3    0    0  0.12164183600E-01 -0.38242071506E-01  0.25262388212E+01  0.25265773301E+01  0.10000000000E-01 0.  1.
</event>
<event>
 7   0  0.6206631E-02  0.9118800E+02  0.7818608E-02  0.1180000E+00
       11   -1    0    0    0    0  0.00000000000E+00  0.00000000000E+00  0.11999999989E+02  0.12000000000E+02  0.51109989000E-03 0.  1.
     -623   -1    0    0    0    0  0.00000000000E+00  0.00000000000E+00  0.42561509872E-11  0.25126700000E+02  0.25126700000E+02 0.  1.
      622    2    1    2    0    0  0.32593970874E-01 -0.35434478286E-02  0.36567320993E+01  0.36595385844E+01  0.13949223056E+00 0.  0.
       11    1    1    2    0    0 -0.37234323334E-01 -0.12897757370E-01  0.83403623386E+01  0.83404554401E+01  0.51109989000E-03 0.  1.
     -623    1    1    2    0    0  0.46403524605E-02  0.16441205199E-01  0.29055512386E-02  0.25126705975E+02  0.25126700000E+02 0.  1.
     -611    1    3    3    0    0 -0.23851965839E-01 -0.20316476017E-01  0.29785016563E+01  0.29786832312E+01  0.10000000000E-01 0.  1.
      611    1    3    3    0    0  0.56445936713E-01  0.16773028189E-01  0.67823044298E+00  0.68085535323E+00  0.10000000000E-01 0. -1.
</event>
<event>
 7   0  0.6206631E-02  0.9118800E+02  0.7818608E-02  0.1180000E+00
       11   -1    0    0    0    0  0.00000000000E+00  0.00000000000E+00  0.11999999989E+02  0.12000000000E+02  0.51109989000E-03 0.  1.
     -623   -1    0    0    0    0  0.00000000000E+00  0.00000000000E+00  0.42561509872E-11  0.25126700000E+02  0.25126700000E+02 0.  1.
      622    2    1    2    0    0 -0.11523392835E-02  0.20236520347E-01  0.11719382287E+02  0.11719900345E+02  0.10831473204E+00 0.  0.
       11    1    1    2    0    0  0.28165937008E-02 -0.19943423004E-01  0.27937400179E+00  0.28009956698E+00  0.51109989000E-03 0.  1.
     -623    1    1    2    0    0 -0.16642544173E-02 -0.29309734269E-03  0.12437006767E-02  0.25126700088E+02  0.25126700000E+02 0.  1.
     -611    1    3    3    0    0  0.42169837346E-01 -0.21989930853E-01  0.47717352903E+01  0.47719827675E+01  0.10000000000E-01 0.  1.
      611    1    3    3    0    0 -0.43322176629E-01  0.42226451200E-01  0.69476469963E+01  0.69479175779E+01  0.10000000000E-01 0.  1.
</event>
<event>
 7   0  0.6206631E-02  0.9118800E+02  0.7818608E-02  0.1180000E+00
       11   -1    0    0    0    0  0.00000000000E+00  0.00000000000E+00  0.11999999989E+02  0.12000000000E+02  0.51109989000E-03 0.  1.
     -623   -1    0    0    0    0  0.00000000000E+00  0.00000000000E+00  0.42561509872E-11  0.25126700000E+02  0.25126700000E+02 0. -1.
      622    2    1    2    0    0 -0.17796189476E-01 -0.54455981305E-02  0.10849904698E+02  0.10850205820E+02  0.78664036253E-01 0.  0.
       11    1    1    2    0    0  0.17973825947E-01  0.52667944001E-02  0.11496415028E+01  0.11497941745E+01  0.51109989000E-03 0.  1.
     -623    1    1    2    0    0 -0.17763647064E-03  0.17880373035E-03  0.45378859326E-03  0.25126700005E+02  0.25126700000E+02 0. -1.
     -611    1    3    3    0    0 -0.14310498793E-01 -0.11558909696E-01  0.10583431451E+02  0.10583452163E+02  0.10000000000E-01 0.  1.
      611    1    3    3    0    0 -0.34856906837E-02  0.61133115655E-02  0.26647324658E+00  0.26675365745E+00  0.10000000000E-01 0.  1.
</event>
<event>
 7   0  0.6206631E-02  0.9118800E+02  0.7818608E-02  0.1180000E+00
       11   -1    0    0    0    0  0.00000000000E+00  0.00000000000E+00  0.11999999989E+02  0.12000000000E+02  0.51109989000E-03 0. -1.
     -623   -1    0    0    0    0  0.00000000000E+00  0.00000000000E+00  0.42561509872E-11  0.25126700000E+02  0.25126700000E+02 0. -1.
      622    2    1    2    0    0 -0.20498668376E-03 -0.43334237292E-03  0.11990976723E+02  0.11991225146E+02  0.77184847012E-01 0.  0.
       11    1    1    2    0    0  0.94465249888E-05 -0.32531293697E-03  0.87538957282E-02  0.87748408124E-02  0.51109989000E-03 0. -1.
     -623    1    1    2    0    0  0.19554015877E-03  0.75865530989E-03  0.26937085700E-03  0.25126700014E+02  0.25126700000E+02 0. -1.
     -611    1    3    3    0    0  0.34072879659E-01 -0.12359647634E-01  0.46558636338E+01  0.46560154530E+01  0.10000000000E-01 0. -1.
      611    1    3    3    0    0 -0.34277866343E-01  0.11926305261E-01  0.73351130888E+01  0.73352096926E+01  0.10000000000E-01 0.  1.
</event>
<event>
 6   0  0.6206631E-02  0.9118800E+02  0.7818608E-02  0.1180000E+00
       11   -1    0    0    0    0  0.00000000000E+00  0.00000000000E+00  0.11999999989E+02  0.12000000000E+02  0.51109989000E-03 0.  1.
     -623   -1    0    0    0    0  0.00000000000E+00  0.00000000000E+00  0.42561509872E-11  0.25126700000E+02  0.25126700000E+02 0. -1.
       11    1    1    2    0    0  0.45953072686E-02 -0.62829589337E-02  0.10269443386E+00  0.10299029270E+00  0.51109989000E-03 0.  1.
     -623    1    1    2    0    0  0.51616603558E-02  0.38718729910E-02  0.26930296041E-02  0.25126700973E+02  0.25126700000E+02 0. -1.
     -611    1    1    2    0    0 -0.87618597979E-01 -0.96842538069E-02  0.18901448160E+01  0.18922257342E+01  0.10000000000E-01 0. -1.
      611    1    1    2    0    0  0.77861630355E-01  0.12095339750E-01  0.10004467710E+02  0.10004783000E+02  0.10000000000E-01 0.  1.
</event>
<event>
 7   0  0.6206631E-02  0.9118800E+02  0.7818608E-02  0.1180000E+00
       11   -1    0    0    0    0  0.00000000000E+00  0.00000000000E+00  0.11999999989E+02  0.12000000000E+02  0.51109989000E-03 0. -1.
     -623   -1    0    0    0    0  0.00000000000E+00  0.00000000000E+00  0.42561509872E-11  0.25126700000E+02  0.25126700000E+02 0.  1.
      622    2    1    2    0    0 -0.14052818214E+00 -0.16463132491E-01  0.49669783134E+01  0.49700448332E+01  0.10223929236E+00 0.  0.
       11    1    1    2    0    0  0.13241490208E+00  0.12101860863E-01  0.70286954871E+01  0.70299531060E+01  0.51109989000E-03 0. -1.
     -623    1    1    2    0    0  0.81132800612E-02  0.43612716280E-02  0.43261885779E-02  0.25126702061E+02  0.25126700000E+02 0.  1.
     -611    1    3    3    0    0  0.11400952496E-01  0.30314640714E-02  0.96471946200E+00  0.96484341313E+00  0.10000000000E-01 0. -1.
      611    1    3    3    0    0 -0.15192913464E+00 -0.19494596562E-01  0.40022588514E+01  0.40052014200E+01  0.10000000000E-01 0.  1.
</event>
<event>
 7   0  0.6206631E-02  0.9118800E+02  0.7818608E-02  0.1180000E+00
       11   -1    0    0    0    0  0.00000000000E+00  0.00000000000E+00  0.11999999989E+02  0.12000000000E+02  0.51109989000E-03 0. -1.
     -623   -1    0    0    0    0  0.00000000000E+00  0.00000000000E+00  0.42561509872E-11  0.25126700000E+02  0.25126700000E+02 0.  1.
      622    2    1    2    0    0  0.74560149645E-02 -0.20055132815E-02  0.11443429284E+02  0.11443686840E+02  0.76387825230E-01 0.  0.
       11    1    1    2    0    0 -0.57987995130E-02  0.27213415240E-02  0.55627597914E+00  0.55631309347E+00  0.51109989000E-03 0. -1.
     -623    1    1    2    0    0 -0.16572154515E-02 -0.71582824251E-03  0.29472602608E-03  0.25126700067E+02  0.25126700000E+02 0.  1.
     -611    1    3    3    0    0  0.26424448244E-01  0.27416249852E-01  0.50190445655E+01  0.50191989652E+01  0.10000000000E-01 0.  1.
      611    1    3    3    0    0 -0.18968433280E-01 -0.29421763133E-01  0.64243847185E+01  0.64244878748E+01  0.10000000000E-01 0. -1.
</event>
<event>
 7   0  0.6206631E-02  0.9118800E+02  0.7818608E-02  0.1180000E+00
       11   -1    0    0    0    0  0.00000000000E+00  0.00000000000E+00  0.11999999989E+02  0.12000000000E+02  0.51109989000E-03 0. -1.
     -623   -1    0    0    0    0  0.00000000000E+00  0.00000000000E+00  0.42561509872E-11  0.25126700000E+02  0.25126700000E+02 0.  1.
      622    2    1    2    0    0  0.15180408213E-01 -0.17209012147E-01  0.93164502523E+01  0.93168118229E+01  0.78807634272E-01 0.  0.
       11    1    1    2    0    0 -0.15424774988E-01  0.18015003599E-01  0.26830832954E+01  0.26831881587E+01  0.51109989000E-03 0. -1.
     -623    1    1    2    0    0  0.24436677531E-03 -0.80599145221E-03  0.46644143786E-03  0.25126700018E+02  0.25126700000E+02 0.  1.
     -611    1    3    3    0    0  0.37496671919E-01 -0.30283482770E-01  0.73657620202E+01  0.73659265016E+01  0.10000000000E-01 0.  1.
      611    1    3    3    0    0 -0.22316263706E-01  0.13074470623E-01  0.19506882322E+01  0.19508853212E+01  0.10000000000E-01 0. -1.
</event>
<event>
 7   0  0.6206631E-02  0.9118800E+02  0.7818608E-02  0.1180000E+00
       11   -1    0    0    0    0  0.00000000000E+00  0.00000000000E+00  0.11999999989E+02  0.12000000000E+02  0.51109989000E-03 0.  1.
     -623   -1    0    0    0    0  0.00000000000E+00  0.00000000000E+00  0.42561509872E-11  0.25126700000E+02  0.25126700000E+02 0. -1.
      622    2    1    2    0    0  0.86684947456E-03  0.85045315880E-02  0.11213364865E+02  0.11213817038E+02  0.10033884011E+00 0.  0.
       11    1    1    2    0    0  0.83564310628E-03 -0.62990644375E-02  0.78615695758E+00  0.78618280297E+00  0.51109989000E-03 0.  1.
     -623    1    1    2    0    0 -0.17024925808E-02 -0.22054671504E-02  0.47816631475E-03  0.25126700159E+02  0.25126700000E+02 0. -1.
     -611    1    3    3    0    0  0.39652258119E-01 -0.68829578547E-02  0.24793461435E+01  0.24796929197E+01  0.10000000000E-01 0.  1.
      611    1    3    3    0    0 -0.38785408645E-01  0.15387489443E-01  0.87340187218E+01  0.87341241184E+01  0.10000000000E-01 0. -1.
</event>
<event>
 7   0  0.6206631E-02  0.9118800E+02  0.7818608E-02  0.1180000E+00
       11   -1    0    0    0    0  0.00000000000E+00  0.00000000000E+00  0.11999999989E+02  0.12000000000E+02  0.51109989000E-03 0.  1.
     -623   -1    0    0    0    0  0.00000000000E+00  0.00000000000E+00  0.42561509872E-11  0.25126700000E+02  0.25126700000E+02 0.  1.
      622    2    1    2    0    0  0.40585339867E-02  0.12712429556E+00  0.52757899136E+01  0.52782931613E+01  0.10120487493E+00 0.  0.
       11    1    1    2    0    0 -0.48860769381E-01 -0.16300912910E+00  0.67194862754E+01  0.67216408277E+01  0.51109989000E-03 0.  1.
     -623    1    1    2    0    0  0.44802235395E-01  0.35884833541E-01  0.47238001417E-02  0.25126766011E+02  0.25126700000E+02 0.  1.
     -611    1    3    3    0    0  0.38753991329E-01  0.22622008416E-01  0.22804066447E+01  0.22808700297E+01  0.10000000000E-01 0.  1.
      611    1    3    3    0    0 -0.34695457342E-01  0.10450228714E+00  0.29953832689E+01  0.29974231317E+01  0.10000000000E-01 0. -1.
</event>
<event>
 7   0  0.6206631E-02  0.9118800E+02  0.7818608E-02  0.1180000E+00
       11   -1    0    0    0    0  0.00000000000E+00  0.00000000000E+00  0.11999999989E+02  0.12000000000E+02  0.51109989000E-03 0.  1.
     -623   -1    0    0    0    0  0.00000000000E+00  0.00000000000E+00  0.42561509872E-11  0.25126700000E+02  0.25126700000E+02 0. -1.
      622    2    1    2    0    0 -0.87014210766E-02  0.61037410101E-02  0.11771141679E+02  0.11771746767E+02  0.11888044772E+00 0.  0.
       11    1    1    2    0    0  0.14851879455E-01 -0.52838513460E-02  0.22770686815E+00  0.22825244015E+00  0.51109989000E-03 0.  1.
     -623    1    1    2    0    0 -0.61504583780E-02 -0.81988966414E-03  0.11514421340E-02  0.25126700793E+02  0.25126700000E+02 0. -1.
     -611    1    3    3    0    0 -0.51992118326E-02 -0.37005057306E-03  0.10594383193E+00  0.10654231209E+00  0.10000000000E-01 0.  1.
      611    1    3    3    0    0 -0.35022092440E-02  0.64737915832E-02  0.11665197847E+02  0.11665204455E+02  0.10000000000E-01 0.  1.
</event>
<event>
 7   0  0.6206631E-02  0.9118800E+02  0.7818608E-02  0.1180000E+00
       11   -1    0    0    0    0  0.00000000000E+00  0.00000000000E+00  0.11999999989E+02  0.12000000000E+02  0.51109989000E-03 0. -1.
     -623   -1    0    0    0    0  0.00000000000E+00  0.00000000000E+00  0.42561509872E-11  0.25126700000E+02  0.25126700000E+02 0.  1.
      622    2    1    2    0    0  0.15650560008E-01 -0.18666383642E-02  0.10930267637E+02  0.10930541460E+02  0.75746742488E-01 0.  0.
       11    1    1    2    0    0 -0.15510816065E-01  0.31601732966E-02  0.10693412259E+01  0.10694585036E+01  0.51109989000E-03 0. -1.
     -623    1    1    2    0    0 -0.13974394318E-03 -0.12935349324E-02  0.39112651204E-03  0.25126700037E+02  0.25126700000E+02 0.  1.
     -611    1    3    3    0    0 -0.45933697658E-02 -0.42003394911E-02  0.99649888681E+01  0.99649958296E+01  0.10000000000E-01 0. -1.
      611    1    3    3    0    0  0.20243929774E-01  0.23337011269E-02  0.96527876850E+00  0.96554563008E+00  0.10000000000E-01 0.  1.
</event>
<event>
 7   0  0.6206631E-02  0.9118800E+02  0.7818608E-02  0.1180000E+00
       11   -1    0    0    0    0  0.00000000000E+00  0.00000000000E+00  0.11999999989E+02  0.12000000000E+02  0.51109989000E-03 0. -1.
     -623   -1    0    0    0    0  0.00000000000E+00  0.00000000000E+00  0.42561509872E-11  0.25126700000E+02  0.25126700000E+02 0. -1.
      622    2    1    2    0    0  0.28803456057E-01  0.28585606333E-01  0.90726153916E+01  0.90735146615E+01  0.12112594275E+00 0.  0.
       11    1    1    2    0    0 -0.18462792958E-01 -0.25984842724E-01  0.29263094012E+01  0.29264830530E+01  0.51109989000E-03 0. -1.
     -623    1    1    2    0    0 -0.10340663099E-01 -0.26007636090E-02  0.10751963114E-02  0.25126702285E+02  0.25126700000E+02 0. -1.
     -611    1    3    3    0    0  0.24721299877E-01 -0.30813517043E-01  0.12455666348E+01  0.12462330670E+01  0.10000000000E-01 0.  1.
      611    1    3    3    0    0  0.40821561799E-02  0.59399123376E-01  0.78270487567E+01  0.78272815945E+01  0.10000000000E-01 0. -1.
</event>
<event>
 7   0  0.6206631E-02  0.9118800E+02  0.7818608E-02  0.1180000E+00
       11   -1    0    0    0    0  0.00000000000E+00  0.00000000000E+00  0.11999999989E+02  0.12000000000E+02  0.51109989000E-03 0.  1.
     -623   -1    0    0    0    0  0.00000000000E+00  0.00000000000E+00  0.42561509872E-11  0.25126700000E+02  0.25126700000E+02 0. -1.
      622    2    1    2    0    0  0.29701668952E-03 -0.70903585822E-03  0.11960968833E+02  0.11961300440E+02  0.89062916217E-01 0.  0.
       11    1    1    2    0    0  0.40916233449E-03 -0.38382827687E-03  0.38692082231E-01  0.38699524397E-01  0.51109989000E-03 0.  1.
     -623    1    1    2    0    0 -0.70617902402E-03  0.10928641351E-02  0.33907434866E-03  0.25126700036E+02  0.25126700000E+02 0. -1.
     -611    1    3    3    0    0  0.28534204247E-01 -0.31453199716E-01  0.46160587264E+01  0.46162649047E+01  0.10000000000E-01 0.  1.
      611    1    3    3    0    0 -0.28237187557E-01  0.30744163858E-01  0.73449101061E+01  0.73450355349E+01  0.10000000000E-01 0. -1.
</event>
<event>
 7   0  0.6206631E-02  0.9118800E+02  0.7818608E-02  0.1180000E+00
       11   -1    0    0    0    0  0.00000000000E+00  0.00000000000E+00  0.11999999989E+02  0.12000000000E+02  0.51109989000E-03 0.  1.
     -623   -1    0    0    0    0  0.00000000000E+00  0.00000000000E+00  0.42561509872E-11  0.25126700000E+02  0.25126700000E+02 0. -1.
      622    2    1    2    0    0 -0.94604785487E-03 -0.16176376418E-01  0.11507454124E+02  0.11507844266E+02  0.93363122429E-01 0.  0.
       11    1    1    2    0    0  0.16764438960E-01 -0.11464318750E-01  0.49171602528E+00  0.49213553800E+00  0.51109989000E-03 0.  1.
     -623    1    1    2    0    0 -0.15818391105E-01  0.27640695168E-01  0.82984019567E-03  0.25126720196E+02  0.25126700000E+02 0. -1.
     -611    1    3    3    0    0 -0.36203039512E-01  0.19634179470E-01  0.61077225856E+01  0.61078696240E+01  0.10000000000E-01 0.  1.
      611    1    3    3    0    0  0.35256991658E-01 -0.35810555889E-01  0.53997315380E+01  0.53999746420E+01  0.10000000000E-01 0.  1.
</event>
<event>
 7   0  0.6206631E-02  0.9118800E+02  0.7818608E-02  0.1180000E+00
       11   -1    0    0    0    0  0.00000000000E+00  0.00000000000E+00  0.11999999989E+02  0.12000000000E+02  0.51109989000E-03 0.  1.
     -623   -1    0    0    0    0  0.00000000000E+00  0.00000000000E+00  0.42561509872E-11  0.25126700000E+02  0.25126700000E+02 0.  1.
      622    2    1    2    0    0  0.14922763774E-02 -0.94073415138E-02  0.11718245097E+02  0.11718648155E+02  0.96724876705E-01 0.  0.
       11    1    1    2    0    0  0.11709327304E-02  0.85657769615E-02  0.28121835878E+00  0.28135168412E+00  0.51109989000E-03 0.  1.
     -623    1    1    2    0    0 -0.26632091078E-02  0.84156455227E-03  0.53653339375E-03  0.25126700161E+02  0.25126700000E+02 0.  1.
     -611    1    3    3    0    0 -0.43674292923E-01 -0.14869501841E-01  0.43585486506E+01  0.43588042954E+01  0.10000000000E-01 0.  1.
      611    1    3    3    0    0  0.45166569300E-01  0.54621603270E-02  0.73596964463E+01  0.73598438595E+01  0.10000000000E-01 0. -1.
</event>
<event>
 7   0  0.6206631E-02  0.9118800E+02  0.7818608E-02  0.1180000E+00
       11   -1    0    0    0    0  0.00000000000E+00  0.00000000000E+00  0.11999999989E+02  0.12000000000E+02  0.51109989000E-03 0. -1.
     -623   -1    0    0    0    0  0.00000000000E+00  0.00000000000E+00  0.42561509872E-11  0.25126700000E+02  0.25126700000E+02 0. -1.
      622    2    1    2    0    0 -0.39256228410E-01  0.87688646063E-02  0.10981239817E+02  0.10981658612E+02  0.87063236980E-01 0.  0.
       11    1    1    2    0    0  0.39728767483E-01 -0.65238277354E-02  0.10175449443E+01  0.10183412543E+01  0.51109989000E-03 0. -1.
     -623    1    1    2    0    0 -0.47253907241E-03 -0.22450368708E-02  0.12152282185E-02  0.25126700134E+02  0.25126700000E+02 0. -1.
     -611    1    3    3    0    0 -0.15784772077E-02 -0.33169079558E-01  0.57708470877E+01  0.57709512898E+01  0.10000000000E-01 0. -1.
      611    1    3    3    0    0 -0.37677751203E-01  0.41937944164E-01  0.52103927288E+01  0.52107073217E+01  0.10000000000E-01 0.  1.
</event>
<event>
 7   0  0.6206631E-02  0.9118800E+02  0.7818608E-02  0.1180000E+00
       11   -1    0    0    0    0  0.00000000000E+00  0.00000000000E+00  0.11999999989E+02  0.12000000000E+02  0.51109989000E-03 0. -1.
     -623   -1    0    0    0    0  0.00000000000E+00  0.00000000000E+00  0.42561509872E-11  0.25126700000E+02  0.25126700000E+02 0. -1.
      622    2    1    2    0    0 -0.91103804766E-01  0.50577141901E-02  0.10542851715E+02  0.10543686887E+02  0.96360758104E-01 0.  0.
       11    1    1    2    0    0  0.95254036252E-01 -0.39067996214E-01  0.14526454378E+01  0.14562893493E+01  0.51109989000E-03 0. -1.
     -623    1    1    2    0    0 -0.41502314854E-02  0.34010282024E-01  0.45028358354E-02  0.25126723764E+02  0.25126700000E+02 0. -1.
     -611    1    3    3    0    0  0.36071216538E-02  0.32008026195E-01  0.27021696495E+01  0.27023801250E+01  0.10000000000E-01 0.  1.
      611    1    3    3    0    0 -0.94710926420E-01 -0.26950312005E-01  0.78406820659E+01  0.78413067621E+01  0.10000000000E-01 0. -1.
</event>
<event>
 7   0  0.6206631E-02  0.9118800E+02  0.7818608E-02  0.1180000E+00
       11   -1    0    0    0    0  0.00000000000E+00  0.00000000000E+00  0.11999999989E+02  0.12000000000E+02  0.51109989000E-03 0. -1.
     -623   -1    0    0    0    0  0.00000000000E+00  0.00000000000E+00  0.42561509872E-11  0.25126700000E+02  0.25126700000E+02 0.  1.
      622    2    1    2    0    0  0.91893225519E-02 -0.85272641529E-02  0.11623178087E+02  0.11623492560E+02  0.84577174992E-01 0.  0.
       11    1    1    2    0    0 -0.34027515570E-02  0.52217464982E-03  0.37648941021E+00  0.37650549611E+00  0.51109989000E-03 0. -1.
     -623    1    1    2    0    0 -0.57865709949E-02  0.80050895031E-02  0.33249197150E-03  0.25126701944E+02  0.25126700000E+02 0.  1.
     -611    1    3    3    0    0  0.33463451217E-02 -0.69003289529E-02  0.11400919512E+02  0.11400926477E+02  0.10000000000E-01 0. -1.
      611    1    3    3    0    0  0.58429774302E-02 -0.16269351999E-02  0.22225857480E+00  0.22256608317E+00  0.10000000000E-01 0. -1.
</event>
<event>
 7   0  0.6206631E-02  0.9118800E+02  0.7818608E-02  0.1180000E+00
       11   -1    0    0    0    0  0.00000000000E+00  0.00000000000E+00  0.11999999989E+02  0.12000000000E+02  0.51109989000E-03 0.  1.
     -623   -1    0    0    0    0  0.00000000000E+00  0.00000000000E+00  0.42561509872E-11  0.25126700000E+02  0.25126700000E+02 0. -1.
      622    2    1    2    0    0 -0.42661986773E-01  0.24376412407E-01  0.26730707938E+01  0.26748040295E+01  0.82794158310E-01 0.  0.
       11    1    1    2    0    0  0.39063901785E-01 -0.25169993591E-01  0.93250798282E+01  0.93251956323E+01  0.51109989000E-03 0.  1.
     -623    1    1    2    0    0  0.35980849881E-02  0.79358118415E-03  0.18493670623E-02  0.25126700338E+02  0.25126700000E+02 0. -1.
     -611    1    3    3    0    0  0.22301563397E-01 -0.37347116687E-02  0.64519536257E+00  0.64566892731E+00  0.10000000000E-01 0.  1.
      611    1    3    3    0    0 -0.64963550170E-01  0.28111124076E-01  0.20278754312E+01  0.20291351021E+01  0.10000000000E-01 0. -1.
</event>
<event>
 7   0  0.6206631E-02  0.9118800E+02  0.7818608E-02  0.1180000E+00
       11   -1    0    0    0    0  0.00000000000E+00  0.00000000000E+00  0.11999999989E+02  0.12000000000E+02  0.51109989000E-03 0. -1.
     -623   -1    0    0    0    0  0.00000000000E+00  0.00000000000E+00  0.42561509872E-11  0.25126700000E+02  0.25126700000E+02 0.  1.
      622    2    1    2    0    0 -0.12188599920E-01  0.50878786528E-03  0.91666254177E+01  0.91671247844E+01  0.94902280457E-01 0.  0.
       11    1    1    2    0    0  0.12419152252E-01 -0.62955480444E-03  0.28328478701E+01  0.28328752087E+01  0.51109989000E-03 0. -1.
     -623    1    1    2    0    0 -0.23055233183E-03  0.12076693915E-03  0.52670124615E-03  0.25126700007E+02  0.25126700000E+02 0.  1.
     -611    1    3    3    0    0  0.11473667800E-01 -0.70435593373E-02  0.30621108059E+00  0.30666998982E+00  0.10000000000E-01 0.  1.
      611    1    3    3    0    0 -0.23662267720E-01  0.75523472026E-02  0.88604143371E+01  0.88604547945E+01  0.10000000000E-01 0. -1.
</event>
<event>
 7   0  0.6206631E-02  0.9118800E+02  0.7818608E-02  0.1180000E+00
       11   -1    0    0    0    0  0.00000000000E+00  0.00000000000E+00  0.11999999989E+02  0.12000000000E+02  0.51109989000E-03 0.  1.
     -623   -1    0    0    0    0  0.00000000000E+00  0.00000000000E+00  0.42561509872E-11  0.25126700000E+02  0.25126700000E+02 0.  1.
      622    2    1    2    0    0 -0.19018102127E-01  0.11902755718E-01  0.11666478048E+02  0.11666913401E+02  0.98259348255E-01 0.  0.
       11    1    1    2    0    0  0.13124999567E-01 -0.18212160435E-01  0.33232734781E+00  0.33308508782E+00  0.51109989000E-03 0.  1.
     -623    1    1    2    0    0  0.58931025593E-02  0.63094047175E-02  0.11945938114E-02  0.25126701512E+02  0.25126700000E+02 0.  1.
     -611    1    3    3    0    0 -0.20030772158E-02  0.25369670013E-01  0.91420396566E+00  0.91461277233E+00  0.10000000000E-01 0. -1.
      611    1    3    3    0    0 -0.17015024911E-01 -0.13466914295E-01  0.10752274082E+02  0.10752300628E+02  0.10000000000E-01 0.  1.
</event>
<event>
 7   0  0.6206631E-02  0.9118800E+02  0.7818608E-02  0.1180000E+00
       11   -1    0    0    0    0  0.00000000000E+00  0.00000000000E+00  0.11999999989E+02  0.12000000000E+02  0.51109989000E-03 0. -1.
     -623   -1    0    0    0    0  0.00000000000E+00  0.00000000000E+00  0.42561509872E-11  0.25126700000E+02  0.25126700000E+02 0. -1.
      622    2    1    2    0    0 -0.60798102028E-02 -0.80831931656E-02  0.11731735339E+02  0.11732155079E+02  0.98723978167E-01 0.  0.
       11    1    1    2    0    0  0.55656067302E-02  0.81316967403E-02  0.26766309667E+00  0.26784490851E+00  0.51109989000E-03 0. -1.
     -623    1    1    2    0    0  0.51420347261E-03 -0.48503574704E-04  0.60155314928E-03  0.25126700013E+02  0.25126700000E+02 0. -1.
     -611    1    3    3    0    0 -0.91873995438E-02 -0.11939939182E-01  0.39444874036E+00  0.39486298792E+00  0.10000000000E-01 0.  1.
      611    1    3    3    0    0  0.31075893410E-02  0.38567460163E-02  0.11337286599E+02  0.11337292091E+02  0.10000000000E-01 0. -1.
</event>
<event>
 7   0  0.6206631E-02  0.9118800E+02  0.7818608E-02  0.1180000E+00
       11   -1    0    0    0    0  0.00000000000E+00  0.00000000000E+00  0.11999999989E+02  0.12000000000E+02  0.51109989000E-03 0.  1.
     -623   -1    0    0    0    0  0.00000000000E+00  0.00000000000E+00  0.42561509872E-11  0.25126700000E+02  0.25126700000E+02 0.  1.
      622    2    1    2    0    0  0.23631070454E-02  0.46225509422E-02  0.10769566858E+02  0.10770104128E+02  0.10745071324E+00 0.  0.
       11    1    1    2    0    0  0.16451823289E-02  0.36283361035E-03  0.12298937919E+01  0.12298950520E+01  0.51109989000E-03 0.  1.
     -623    1    1    2    0    0 -0.40082893743E-02 -0.49853845525E-02  0.53933874558E-03  0.25126700820E+02  0.25126700000E+02 0.  1.
     -611    1    3    3    0    0 -0.90281293529E-02  0.44036303733E-01  0.86172954757E+01  0.86174185240E+01  0.10000000000E-01 0.  1.
      611    1    3    3    0    0  0.11391236398E-01 -0.39413752791E-01  0.21522713828E+01  0.21526856039E+01  0.10000000000E-01 0. -1.
</event>
<event>
 7   0  0.6206631E-02  0.9118800E+02  0.7818608E-02  0.1180000E+00
       11   -1    0    0    0    0  0.00000000000E+00  0.00000000000E+00  0.11999999989E+02  0.12000000000E+02  0.51109989000E-03 0. -1.
     -623   -1    0    0    0    0  0.00000000000E+00  0.00000000000E+00  0.42561509872E-11  0.25126700000E+02  0.25126700000E+02 0.  1.
      622    2    1    2    0    0 -0.50741671675E-01  0.10173901127E+00  0.77303927804E+01  0.77315945935E+01  0.75212194061E-01 0.  0.
       11    1    1    2    0    0  0.54046741959E-01 -0.99017323888E-01  0.42669139465E+01  0.42684048975E+01  0.51109989000E-03 0. -1.
     -623    1    1    2    0    0 -0.33050702843E-02 -0.27216873833E-02  0.26932622349E-02  0.25126700509E+02  0.25126700000E+02 0.  1.
     -611    1    3    3    0    0 -0.36611034260E-01  0.10057525474E+00  0.73704598655E+01  0.73712437470E+01  0.10000000000E-01 0. -1.
      611    1    3    3    0    0 -0.14130637415E-01  0.11637565271E-02  0.35993291498E+00  0.36035084644E+00  0.10000000000E-01 0.  1.
</event>
<event>
 7   0  0.6206631E-02  0.9118800E+02  0.7818608E-02  0.1180000E+00
       11   -1    0    0    0    0  0.00000000000E+00  0.00000000000E+00  0.11999999989E+02  0.12000000000E+02  0.51109989000E-03 0.  1.
     -623   -1    0    0    0    0  0.00000000000E+00  0.00000000000E+00  0.42561509872E-11  0.25126700000E+02  0.25126700000E+02 0. -1.
      622    2    1    2    0    0 -0.59520962813E-02 -0.19964754352E-02  0.11260401070E+02  0.11260744638E+02  0.87739008924E-01 0.  0.
       11    1    1    2    0    0  0.34375083188E-02 -0.12378380188E-01  0.73913930839E+00  0.73925112052E+00  0.51109989000E-03 0.  1.
     -623    1    1    2    0    0  0.25145879625E-02  0.14374855623E-01  0.45961126043E-03  0.25126704242E+02  0.25126700000E+02 0. -1.
     -611    1    3    3    0    0  0.23779844254E-02 -0.43375992813E-01  0.57830195613E+01  0.57831913661E+01  0.10000000000E-01 0.  1.
      611    1    3    3    0    0 -0.83300807067E-02  0.41379517378E-01  0.54773815082E+01  0.54775532715E+01  0.10000000000E-01 0.  1.
</event>
<event>
 7   0  0.6206631E-02  0.9118800E+02  0.7818608E-02  0.1180000E+00
       11   -1    0    0    0    0  0.00000000000E+00  0.00000000000E+00  0.11999999989E+02  0.12000000000E+02  0.51109989000E-03 0. -1.
     -623   -1    0    0    0    0  0.00000000000E+00  0.00000000000E+00  0.42561509872E-11  0.25126700000E+02  0.25126700000E+02 0.  1.
      622    2    1    2    0    0 -0.41608356892E-02  0.40419258346E-02  0.10409678093E+02  0.10409814497E+02  0.52973616898E-01 0.  0.
       11    1    1    2    0    0 -0.57291707925E-02 -0.76422073224E-02  0.15901545316E+01  0.15901832983E+01  0.51109989000E-03 0. -1.
     -623    1    1    2    0    0  0.98900064816E-02  0.36002814879E-02  0.16736433481E-03  0.25126702205E+02  0.25126700000E+02 0.  1.
     -611    1    3    3    0    0 -0.17135646921E-01  0.27921109279E-02  0.92327894184E+01  0.92328111575E+01  0.10000000000E-01 0. -1.
      611    1    3    3    0    0  0.12974811232E-01  0.12498149067E-02  0.11768886749E+01  0.11770033394E+01  0.10000000000E-01 0. -1.
</event>
<event>
 7   0  0.6206631E-02  0.9118800E+02  0.7818608E-02  0.1180000E+00
       11   -1    0    0    0    0  0.00000000000E+00  0.00000000000E+00  0.11999999989E+02  0.12000000000E+02  0.51109989000E-03 0. -1.
     -623   -1    0    0    0    0  0.00000000000E+00  0.00000000000E+00  0.42561509872E-11  0.25126700000E+02  0.25126700000E+02 0.  1.
      622    2    1    2    0    0 -0.41429997662E-02  0.11037085038E-03  0.11958178169E+02  0.11958507966E+02  0.88715614597E-01 0.  0.
       11    1    1    2    0    0  0.49309436371E-02 -0.14921499793E-02  0.41167731222E-01  0.41491975535E-01  0.51109989000E-03 0. -1.
     -623    1    1    2    0    0 -0.78794387082E-03  0.13817791289E-02  0.65408869124E-03  0.25126700059E+02  0.25126700000E+02 0.  1.
     -611    1    3    3    0    0 -0.20235407948E-01 -0.29385828343E-01  0.95776426721E+01  0.95777143491E+01  0.10000000000E-01 0. -1.
      611    1    3    3    0    0  0.16092408181E-01  0.29496199194E-01  0.23805354971E+01  0.23807936165E+01  0.10000000000E-01 0.  1.
</event>
<event>
 7   0  0.6206631E-02  0.9118800E+02  0.7818608E-02  0.1180000E+00
       11   -1    0    0    0    0  0.00000000000E+00  0.00000000000E+00  0.11999999989E+02  0.12000000000E+02  0.51109989000E-03 0. -1.
     -623   -1    0    0    0    0  0.00000000000E+00  0.00000000000E+00  0.42561509872E-11  0.25126700000E+02  0.25126700000E+02 0.  1.
      622    2    1    2    0    0 -0.54728124026E-01  0.64206499817E-01  0.11760194557E+02  0.11760942231E+02  0.10231567830E+00 0.  0.
       11    1    1    2    0    0  0.57411033784E-01 -0.47428741650E-01  0.22715319465E+00  0.23904883894E+00  0.51109989000E-03 0. -1.
     -623    1    1    2    0    0 -0.26829097587E-02 -0.16777758167E-01  0.12652237460E-01  0.25126708930E+02  0.25126700000E+02 0.  1.
     -611    1    3    3    0    0  0.14955185471E-01  0.30423631055E-01  0.13752203795E+01  0.13756745063E+01  0.10000000000E-01 0.  1.
      611    1    3    3    0    0 -0.69683309497E-01  0.33782868762E-01  0.10384974177E+02  0.10385267725E+02  0.10000000000E-01 0. -1.
</event>
<event>
 7   0  0.6206631E-02  0.9118800E+02  0.7818608E-02  0.1180000E+00
       11   -1    0    0    0    0  0.00000000000E+00  0.00000000000E+00  0.11999999989E+02  0.12000000000E+02  0.51109989000E-03 0. -1.
     -623   -1    0    0    0    0  0.00000000000E+00  0.00000000000E+00  0.42561509872E-11  0.25126700000E+02  0.25126700000E+02 0.  1.
      622    2    1    2    0    0 -0.46925611238E-02  0.51889657315E-01  0.11458271661E+02  0.11458915418E+02  0.10972029702E+00 0.  0.
       11    1    1    2    0    0 -0.54215698079E-02 -0.46248545859E-01  0.53907411588E+00  0.54108177297E+00  0.51109989000E-03 0. -1.
     -623    1    1    2    0    0  0.10114130932E-01 -0.56411114565E-02  0.26542122615E-02  0.25126702809E+02  0.25126700000E+02 0.  1.
     -611    1    3    3    0    0  0.90039372374E-02 -0.27782426840E-01  0.15405746073E+01  0.15408838551E+01  0.10000000000E-01 0.  1.
      611    1    3    3    0    0 -0.13696498361E-01  0.79672084155E-01  0.99176970536E+01  0.99180315629E+01  0.10000000000E-01 0. -1.
</event>
<event>
 7   0  0.6206631E-02  0.9118800E+02  0.7818608E-02  0.1180000E+00
       11   -1    0    0    0    0  0.00000000000E+00  0.00000000000E+00  0.11999999989E+02  0.12000000000E+02  0.51109989000E-03 0.  1.
     -623   -1    0    0    0    0  0.00000000000E+00  0.00000000000E+00  0.42561509872E-11  0.25126700000E+02  0.25126700000E+02 0.  1.
      622    2    1    2    0    0  0.98196136747E-02  0.20981716118E-02  0.11955788072E+02  0.11956065504E+02  0.80827504699E-01 0.  0.
       11    1    1    2    0    0 -0.58502428207E-02 -0.93691471862E-02  0.42518789847E-01  0.43933073797E-01  0.51109989000E-03 0.  1.
     -623    1    1    2    0    0 -0.39693708541E-02  0.72709755744E-02  0.16931276240E-02  0.25126701423E+02  0.25126700000E+02 0.  1.
     -611    1    3    3    0    0 -0.23674892966E-01 -0.25791505985E-01  0.58975376925E+01  0.58976500860E+01  0.10000000000E-01 0. -1.
      611    1    3    3    0    0  0.33494506641E-01  0.27889677596E-01  0.60582503791E+01  0.60584154176E+01  0.10000000000E-01 0.  1.
</event>
<event>
 7   0  0.6206631E-02  0.9118800E+02  0.7818608E-02  0.1180000E+00
       11   -1    0    0    0    0  0.00000000000E+00  0.00000000000E+00  0.11999999989E+02  0.12000000000E+02  0.51109989000E-03 0. -1.
     -623   -1    0    0    0    0  0.00000000000E+00  0.00000000000E+00  0.42561509872E-11  0.25126700000E+02  0.25126700000E+02 0. -1.
      622    2    1    2    0    0 -0.75514597684E-01  0.10939884087E-01  0.96137029320E+01  0.96145032762E+01  0.97811279390E-01 0.  0.
       11    1    1    2    0    0  0.65022689741E-01  0.45272661227E-01  0.23841153294E+01  0.23854315603E+01  0.51109989000E-03 0. -1.
     -623    1    1    2    0    0  0.10491907943E-01 -0.56212545314E-01  0.21817276748E-02  0.25126765163E+02  0.25126700000E+02 0. -1.
     -611    1    3    3    0    0  0.11271462300E-01  0.30751762451E-01  0.24051046437E+01  0.24053484287E+01  0.10000000000E-01 0.  1.
      611    1    3    3    0    0 -0.86786059984E-01 -0.19811878364E-01  0.72085982884E+01  0.72091548474E+01  0.10000000000E-01 0. -1.
</event>
<event>
 7   0  0.6206631E-02  0.9118800E+02  0.7818608E-02  0.1180000E+00
       11   -1    0    0    0    0  0.00000000000E+00  0.00000000000E+00  0.11999999989E+02  0.12000000000E+02  0.51109989000E-03 0.  1.
     -623   -1    0    0    0    0  0.00000000000E+00  0.00000000000E+00  0.42561509872E-11  0.25126700000E+02  0.25126700000E+02 0. -1.
      622    2    1    2    0    0  0.34332441667E-01 -0.11844530406E+00  0.10387925268E+02  0.10389394658E+02  0.12378193687E+00 0.  0.
       11    1    1    2    0    0 -0.38351150307E-02  0.19367343980E+00  0.15987781308E+01  0.16104707020E+01  0.51109989000E-03 0.  1.
     -623    1    1    2    0    0 -0.30497326636E-01 -0.75228135746E-01  0.13296590257E-01  0.25126834640E+02  0.25126700000E+02 0. -1.
     -611    1    3    3    0    0 -0.17186223174E-02  0.14122357458E-01  0.37501115152E+01  0.37501518330E+01  0.10000000000E-01 0. -1.
      611    1    3    3    0    0  0.36051063984E-01 -0.13256766151E+00  0.66378137529E+01  0.66392428245E+01  0.10000000000E-01 0.  1.
</event>
<event>
 7   0  0.6206631E-02  0.9118800E+02  0.7818608E-02  0.1180000E+00
       11   -1    0    0    0    0  0.00000000000E+00  0.00000000000E+00  0.11999999989E+02  0.12000000000E+02  0.51109989000E-03 0. -1.
     -623   -1    0    0    0    0  0.00000000000E+00  0.00000000000E+00  0.42561509872E-11  0.25126700000E+02  0.25126700000E+02 0. -1.
      622    2    1    2    0    0  0.49893608606E-02 -0.67732443212E-03  0.11955367492E+02  0.11955659144E+02  0.83356684550E-01 0.  0.
       11    1    1    2    0    0 -0.36146533279E-02  0.95203899523E-03  0.44180022559E-01  0.44340813179E-01  0.51109989000E-03 0. -1.
     -623    1    1    2    0    0 -0.13747075327E-02 -0.27471456311E-03  0.45247452884E-03  0.25126700043E+02  0.25126700000E+02 0. -1.
     -611    1    3    3    0    0 -0.26344170103E-01  0.27803556540E-01  0.51040959539E+01  0.51042494610E+01  0.10000000000E-01 0.  1.
      611    1    3    3    0    0  0.31333530964E-01 -0.28480880972E-01  0.68512715381E+01  0.68514096826E+01  0.10000000000E-01 0. -1.
</event>
<event>
 7   0  0.6206631E-02  0.9118800E+02  0.7818608E-02  0.1180000E+00
       11   -1    0    0    0    0  0.00000000000E+00  0.00000000000E+00  0.11999999989E+02  0.12000000000E+02  0.51109989000E-03 0. -1.
     -623   -1    0    0    0    0  0.00000000000E+00  0.00000000000E+00  0.42561509872E-11  0.25126700000E+02  0.25126700000E+02 0.  1.
      622    2    1    2    0    0  0.34973525454E-01  0.20310028636E-01  0.11201273457E+02  0.11201652311E+02  0.82775437620E-01 0.  0.
       11    1    1    2    0    0 -0.37499400811E-01  0.69675303585E-03  0.79745708773E+00  0.79833874923E+00  0.51109989000E-03 0. -1.
     -623    1    1    2    0    0  0.25258753564E-02 -0.21006781672E-01  0.12694439336E-02  0.25126708940E+02  0.25126700000E+02 0.  1.
     -611    1    3    3    0    0  0.43387363495E-01 -0.13442728418E-01  0.37115724788E+01  0.37118638762E+01  0.10000000000E-01 0.  1.
      611    1    3    3    0    0 -0.84138380409E-02  0.33752757054E-01  0.74897009786E+01  0.74897884343E+01  0.10000000000E-01 0. -1.
</event>
<event>
 7   0  0.6206631E-02  0.9118800E+02  0.7818608E-02  0.1180000E+00
       11   -1    0    0    0    0  0.00000000000E+00  0.00000000000E+00  0.11999999989E+02  0.12000000000E+02  0.51109989000E-03 0.  1.
     -623   -1    0    0    0    0  0.00000000000E+00  0.00000000000E+00  0.42561509872E-11  0.25126700000E+02  0.25126700000E+02 0. -1.
      622    2    1    2    0    0  0.44095452500E-03 -0.54619096720E-03  0.11954257960E+02  0.11954639842E+02  0.95550496022E-01 0.  0.
       11    1    1    2    0    0  0.68706968909E-04  0.29661586582E-03  0.45356246796E-01  0.45360148237E-01  0.51109989000E-03 0.  1.
     -623    1    1    2    0    0 -0.50966149391E-03  0.24957510138E-03  0.38578244817E-03  0.25126700009E+02  0.25126700000E+02 0. -1.
     -611    1    3    3    0    0 -0.38175943707E-01 -0.36494608862E-02  0.92599331173E+01  0.92600179297E+01  0.10000000000E-01 0.  1.
      611    1    3    3    0    0  0.38616898232E-01  0.31032699190E-02  0.26943248426E+01  0.26946219127E+01  0.10000000000E-01 0.  1.
</event>
<event>
 7   0  0.6206631E-02  0.9118800E+02  0.7818608E-02  0.1180000E+00
       11   -1    0    0    0    0  0.00000000000E+00  0.00000000000E+00  0.11999999989E+02  0.12000000000E+02  0.51109989000E-03 0. -1.
     -623   -1    0    0    0    0  0.00000000000E+00  0.00000000000E+00  0.42561509872E-11  0.25126700000E+02  0.25126700000E+02 0. -1.
      622    2    1    2    0    0  0.28058775613E-01 -0.28292130662E-02  0.10999486774E+02  0.10999837190E+02  0.83148044361E-01 0.  0.
       11    1    1    2    0    0  0.25075352975E-01  0.60336972748E-02  0.99977367522E+00  0.10001064152E+01  0.51109989000E-03 0. -1.
     -623    1    1    2    0    0 -0.53134128588E-01 -0.32044842086E-02  0.73953940614E-03  0.25126756395E+02  0.25126700000E+02 0. -1.
     -611    1    3    3    0    0  0.32716620277E-01  0.55298997242E-02  0.17657261447E+01  0.17660661865E+01  0.10000000000E-01 0.  1.
      611    1    3    3    0    0 -0.46578446643E-02 -0.83591127904E-02  0.92337606298E+01  0.92337710032E+01  0.10000000000E-01 0. -1.
</event>
<event>
 7   0  0.6206631E-02  0.9118800E+02  0.7818608E-02  0.1180000E+00
       11   -1    0    0    0    0  0.00000000000E+00  0.00000000000E+00  0.11999999989E+02  0.12000000000E+02  0.51109989000E-03 0.  1.
     -623   -1    0    0    0    0  0.00000000000E+00  0.00000000000E+00  0.42561509872E-11  0.25126700000E+02  0.25126700000E+02 0.  1.
      622    2    1    2    0    0  0.48326718557E-02  0.48318237476E-01  0.11113709506E+02  0.11115526968E+02  0.19504560988E+00 0.  0.
       11    1    1    2    0    0  0.55398141880E-02 -0.20945373790E-01  0.88419034602E+00  0.88445589344E+00  0.51109989000E-03 0.  1.
     -623    1    1    2    0    0 -0.10372486044E-01 -0.27372863686E-01  0.21001373173E-02  0.25126717139E+02  0.25126700000E+02 0.  1.
     -611    1    3    3    0    0 -0.75232169818E-01  0.45600703174E-01  0.27439321408E+01  0.27453602490E+01  0.10000000000E-01 0.  1.
      611    1    3    3    0    0  0.80064841674E-01  0.27175343024E-02  0.83697773650E+01  0.83701667189E+01  0.10000000000E-01 0. -1.
</event>
<event>
 7   0  0.6206631E-02  0.9118800E+02  0.7818608E-02  0.1180000E+00
       11   -1    0    0    0    0  0.00000000000E+00  0.00000000000E+00  0.11999999989E+02  0.12000000000E+02  0.51109989000E-03 0.  1.
     -623   -1    0    0    0    0  0.00000000000E+00  0.00000000000E+00  0.42561509872E-11  0.25126700000E+02  0.25126700000E+02 0.  1.
      622    2    1    2    0    0 -0.16935730643E-02  0.59021761716E-03  0.11984040855E+02  0.11984902302E+02  0.14368279640E+00 0.  0.
       11    1    1    2    0    0  0.12606978642E-02  0.20538302817E-02  0.14895190536E-01  0.15097532982E-01  0.51109989000E-03 0.  1.
     -623    1    1    2    0    0  0.43287520008E-03 -0.26440478989E-02  0.10639434488E-02  0.25126700165E+02  0.25126700000E+02 0.  1.
     -611    1    3    3    0    0 -0.64686159466E-01 -0.18791357830E-01  0.81281685279E+01  0.81284537910E+01  0.10000000000E-01 0.  1.
      611    1    3    3    0    0  0.62992586401E-01  0.19381575447E-01  0.38558723272E+01  0.38564485106E+01  0.10000000000E-01 0. -1.
</event>
<event>
 7   0  0.6206631E-02  0.9118800E+02  0.7818608E-02  0.1180000E+00
       11   -1    0    0    0    0  0.00000000000E+00  0.00000000000E+00  0.11999999989E+02  0.12000000000E+02  0.51109989000E-03 0.  1.
     -623   -1    0    0    0    0  0.00000000000E+00  0.00000000000E+00  0.42561509872E-11  0.25126700000E+02  0.25126700000E+02 0.  1.
      622    2    1    2    0    0 -0.25627893300E-01  0.28859348385E-02  0.70764160903E+01  0.70771935534E+01  0.10167984470E+00 0.  0.
       11    1    1    2    0    0  0.18786744839E-01  0.26482941968E-02  0.49227683060E+01  0.49228048927E+01  0.51109989000E-03 0.  1.
     -623    1    1    2    0    0  0.68411484604E-02 -0.55342290353E-02  0.81559280865E-03  0.25126701554E+02  0.25126700000E+02 0.  1.
     -611    1    3    3    0    0  0.68414540055E-02  0.62209694666E-02  0.63128841422E+01  0.63128988348E+01  0.10000000000E-01 0.  1.
      611    1    3    3    0    0 -0.32469347305E-01 -0.33350346281E-02  0.76353194813E+00  0.76429471854E+00  0.10000000000E-01 0. -1.
</event>
<event>
 7   0  0.6206631E-02  0.9118800E+02  0.7818608E-02  0.1180000E+00
       11   -1    0    0    0    0  0.00000000000E+00  0.00000000000E+00  0.11999999989E+02  0.12000000000E+02  0.51109989000E-03 0.  1.
     -623   -1    0    0    0    0  0.00000000000E+00  0.00000000000E+00  0.42561509872E-11  0.25126700000E+02  0.25126700000E+02 0.  1.
      622    2    1    2    0    0  0.38604777105E-02  0.33389628699E-02  0.11987933963E+02  0.11988049713E+02  0.52432377207E-01 0.  0.
       11    1    1    2    0    0  0.16063770524E-02 -0.32700651322E-03  0.11825489744E-01  0.11949510922E-01  0.51109989000E-03 0.  1.
     -623    1    1    2    0    0 -0.54668547629E-02 -0.30119563567E-02  0.24053610571E-03  0.25126700776E+02  0.25126700000E+02 0.  1.
     -611    1    3    3    0    0  0.13828154135E-01 -0.78940179719E-02  0.10338049946E+02  0.10338067045E+02  0.10000000000E-01 0.  1.
      611    1    3    3    0    0 -0.99676764241E-02  0.11232980842E-01  0.16498840171E+01  0.16499826679E+01  0.10000000000E-01 0. -1.
</event>
<event>
 7   0  0.6206631E-02  0.9118800E+02  0.7818608E-02  0.1180000E+00
       11   -1    0    0    0    0  0.00000000000E+00  0.00000000000E+00  0.11999999989E+02  0.12000000000E+02  0.51109989000E-03 0. -1.
     -623   -1    0    0    0    0  0.00000000000E+00  0.00000000000E+00  0.42561509872E-11  0.25126700000E+02  0.25126700000E+02 0. -1.
      622    2    1    2    0    0  0.17618513347E-01  0.74969335488E-02  0.35857131264E+01  0.35869398850E+01  0.91828631683E-01 0.  0.
       11    1    1    2    0    0 -0.35503270436E-01 -0.29484038998E-02  0.84129778594E+01  0.84130533042E+01  0.51109989000E-03 0. -1.
     -623    1    1    2    0    0  0.17884757088E-01 -0.45485296490E-02  0.13090033225E-02  0.25126706811E+02  0.25126700000E+02 0. -1.
     -611    1    3    3    0    0  0.62987739461E-02 -0.70008007983E-02  0.34035326921E+01  0.34035604111E+01  0.10000000000E-01 0.  1.
      611    1    3    3    0    0  0.11319739401E-01  0.14497734347E-01  0.18218043429E+00  0.18337947388E+00  0.10000000000E-01 0. -1.
</event>
<event>
 7   0  0.6206631E-02  0.9118800E+02  0.7818608E-02  0.1180000E+00
       11   -1    0    0    0    0  0.00000000000E+00  0.00000000000E+00  0.11999999989E+02  0.12000000000E+02  0.51109989000E-03 0.  1.
     -623   -1    0    0    0    0  0.00000000000E+00  0.00000000000E+00  0.42561509872E-11  0.25126700000E+02  0.25126700000E+02 0. -1.
      622    2    1    2    0    0  0.58504101707E-02 -0.24759237962E-01  0.57350380714E+01  0.57354932714E+01  0.67632374212E-01 0.  0.
       11    1    1    2    0    0 -0.11797985255E-01  0.21290030299E-01  0.62644584723E+01  0.62645057802E+01  0.51109989000E-03 0.  1.
     -623    1    1    2    0    0  0.59475750843E-02  0.34692076629E-02  0.50344541217E-03  0.25126700948E+02  0.25126700000E+02 0. -1.
     -611    1    3    3    0    0  0.18384776509E-01  0.17306013276E-01  0.22939159121E+01  0.22940766574E+01  0.10000000000E-01 0. -1.
      611    1    3    3    0    0 -0.12534366338E-01 -0.42065251238E-01  0.34411221593E+01  0.34414166140E+01  0.10000000000E-01 0.  1.
</event>
<event>
 7   0  0.6206631E-02  0.9118800E+02  0.7818608E-02  0.1180000E+00
       11   -1    0    0    0    0  0.00000000000E+00  0.00000000000E+00  0.11999999989E+02  0.12000000000E+02  0.51109989000E-03 0. -1.
     -623   -1    0    0    0    0  0.00000000000E+00  0.00000000000E+00  0.42561509872E-11  0.25126700000E+02  0.25126700000E+02 0.  1.
      622    2    1    2    0    0 -0.36253430431E-01  0.40861255991E-01  0.65009112297E+01  0.65021782928E+01  0.11615412985E+00 0.  0.
       11    1    1    2    0    0 -0.14199859770E-01  0.21509103470E-02  0.54977154188E+01  0.54977342015E+01  0.51109989000E-03 0. -1.
     -623    1    1    2    0    0  0.50453290202E-01 -0.43012166338E-01  0.13733406080E-02  0.25126787506E+02  0.25126700000E+02 0.  1.
     -611    1    3    3    0    0 -0.21145589147E-01  0.16674850592E-01  0.61208898638E+01  0.61209572708E+01  0.10000000000E-01 0. -1.
      611    1    3    3    0    0 -0.15107841285E-01  0.24186405399E-01  0.38002136590E+00  0.38122102200E+00  0.10000000000E-01 0.  1.
</event>
<event>
 7   0  0.6206631E-02  0.9118800E+02  0.7818608E-02  0.1180000E+00
       11   -1    0    0    0    0  0.00000000000E+00  0.00000000000E+00  0.11999999989E+02  0.12000000000E+02  0.51109989000E-03 0. -1.
     -623   -1    0    0    0    0  0.00000000000E+00  0.00000000000E+00  0.42561509872E-11  0.25126700000E+02  0.25126700000E+02 0.  1.
      622    2    1    2    0    0 -0.77735535792E-03 -0.38281909941E-02  0.11969047475E+02  0.11969500677E+02  0.10408515949E+00 0.  0.
       11    1    1    2    0    0 -0.40967503590E-02  0.29523917179E-02  0.30073523654E-01  0.30498820116E-01  0.51109989000E-03 0. -1.
     -623    1    1    2    0    0  0.48741057170E-02  0.87579927622E-03  0.87899020399E-03  0.25126700503E+02  0.25126700000E+02 0.  1.
     -611    1    3    3    0    0  0.30717078228E-01 -0.14264418361E-01  0.15765904388E+01  0.15769858668E+01  0.10000000000E-01 0.  1.
      611    1    3    3    0    0 -0.31494433586E-01  0.10436227367E-01  0.10392457037E+02  0.10392514810E+02  0.10000000000E-01 0. -1.
</event>
<event>
 7   0  0.6206631E-02  0.9118800E+02  0.7818608E-02  0.1180000E+00
       11   -1    0    0    0    0  0.00000000000E+00  0.00000000000E+00  0.11999999989E+02  0.12000000000E+02  0.51109989000E-03 0. -1.
     -623   -1    0    0    0    0  0.00000000000E+00  0.00000000000E+00  0.42561509872E-11  0.25126700000E+02  0.25126700000E+02 0. -1.
      622    2    1    2    0    0 -0.10565741341E+00  0.42151485797E-02  0.73474711129E+01  0.73488050798E+01  0.91777390842E-01 0.  0.
       11    1    1    2    0    0  0.10177580731E+00 -0.32261836106E-01  0.46499532423E+01  0.46511788353E+01  0.51109989000E-03 0. -1.
     -623    1    1    2    0    0  0.38816061048E-02  0.28046687526E-01  0.25756338299E-02  0.25126716085E+02  0.25126700000E+02 0. -1.
     -611    1    3    3    0    0 -0.29865522656E-01  0.42553922288E-01  0.22979428592E+01  0.22985526250E+01  0.10000000000E-01 0.  1.
      611    1    3    3    0    0 -0.75791890754E-01 -0.38338773708E-01  0.50495282538E+01  0.50502524549E+01  0.10000000000E-01 0. -1.
</event>
<event>
 7   0  0.6206631E-02  0.9118800E+02  0.7818608E-02  0.1180000E+00
       11   -1    0    0    0    0  0.00000000000E+00  0.00000000000E+00  0.11999999989E+02  0.12000000000E+02  0.51109989000E-03 0. -1.
     -623   -1    0    0    0    0  0.00000000000E+00  0.00000000000E+00  0.42561509872E-11  0.25126700000E+02  0.25126700000E+02 0.  1.
      622    2    1    2    0    0 -0.28526512283E-02  0.12304346298E-01  0.11803489272E+02  0.11804071613E+02  0.11656805560E+00 0.  0.
       11    1    1    2    0    0  0.19435925596E-01 -0.79464839038E-02  0.19479336373E+00  0.19592247852E+00  0.51109989000E-03 0. -1.
     -623    1    1    2    0    0 -0.16583274368E-01 -0.43578623945E-02  0.17173536712E-02  0.25126705909E+02  0.25126700000E+02 0.  1.
     -611    1    3    3    0    0 -0.69309939700E-02 -0.10396278653E-02  0.13058651607E+00  0.13115623387E+00  0.10000000000E-01 0. -1.
      611    1    3    3    0    0  0.40783427417E-02  0.13343974164E-01  0.11672902756E+02  0.11672915379E+02  0.10000000000E-01 0. -1.
</event>
<event>
 7   0  0.6206631E-02  0.9118800E+02  0.7818608E-02  0.1180000E+00
       11   -1    0    0    0    0  0.00000000000E+00  0.00000000000E+00  0.11999999989E+02  0.12000000000E+02  0.51109989000E-03 0. -1.
     -623   -1    0    0    0    0  0.00000000000E+00  0.00000000000E+00  0.42561509872E-11  0.25126700000E+02  0.25126700000E+02 0. -1.
      622    2    1    2    0    0 -0.29868650793E-01  0.38089189667E-02  0.11426095788E+02  0.11426494238E+02  0.90548116123E-01 0.  0.
       11    1    1    2    0    0  0.22401343728E-01  0.76717373233E-02  0.57301275981E+00  0.57350201385E+00  0.51109989000E-03 0. -1.
     -623    1    1    2    0    0  0.74673070643E-02 -0.11480656290E-01  0.89144097968E-03  0.25126703748E+02  0.25126700000E+02 0. -1.
     -611    1    3    3    0    0  0.24626469761E-01  0.42035749653E-02  0.14833079841E+01  0.14835520580E+01  0.10000000000E-01 0.  1.
      611    1    3    3    0    0 -0.54495120554E-01 -0.39465599866E-03  0.99427878042E+01  0.99429421799E+01  0.10000000000E-01 0. -1.
</event>
<event>
 7   0  0.6206631E-02  0.9118800E+02  0.7818608E-02  0.1180000E+00
       11   -1    0    0    0    0  0.00000000000E+00  0.00000000000E+00  0.11999999989E+02  0.12000000000E+02  0.51109989000E-03 0. -1.
     -623   -1    0    0    0    0  0.00000000000E+00  0.00000000000E+00  0.42561509872E-11  0.25126700000E+02  0.25126700000E+02 0. -1.
      622    2    1    2    0    0 -0.89981521989E-01  0.54489616895E-01  0.86140333536E+01  0.86152346028E+01  0.98136902215E-01 0.  0.
       11    1    1    2    0    0  0.10392824038E+00 -0.27836354609E-01  0.33830367330E+01  0.33847472195E+01  0.51109989000E-03 0. -1.
     -623    1    1    2    0    0 -0.13946718387E-01 -0.26653262286E-01  0.29299025036E-02  0.25126718178E+02  0.25126700000E+02 0. -1.
     -611    1    3    3    0    0 -0.98002151180E-01  0.42051234572E-01  0.83016778276E+01  0.83023687873E+01  0.10000000000E-01 0. -1.
      611    1    3    3    0    0  0.80206291904E-02  0.12438382324E-01  0.31235552600E+00  0.31286581544E+00  0.10000000000E-01 0.  1.
</event>
<event>
 7   0  0.6206631E-02  0.9118800E+02  0.7818608E-02  0.1180000E+00
       11   -1    0    0    0    0  0.00000000000E+00  0.00000000000E+00  0.11999999989E+02  0.12000000000E+02  0.51109989000E-03 0.  1.
     -623   -1    0    0    0    0  0.00000000000E+00  0.00000000000E+00  0.42561509872E-11  0.25126700000E+02  0.25126700000E+02 0.  1.
      622    2    1    2    0    0  0.31658289043E-01  0.32467046305E-01  0.11893030787E+02  0.11893866767E+02  0.13352536290E+00 0.  0.
       11    1    1    2    0    0  0.52206836463E-02 -0.19025678163E-03  0.10595547574E+00  0.10608541746E+00  0.51109989000E-03 0.  1.
     -623    1    1    2    0    0 -0.36878972690E-01 -0.32276789523E-01  0.10137263639E-02  0.25126747815E+02  0.25126700000E+02 0.  1.
     -611    1    3    3    0    0  0.43332989614E-01 -0.18265897766E-02  0.12870406199E+01  0.12878100177E+01  0.10000000000E-01 0. -1.
      611    1    3    3    0    0 -0.11674700571E-01  0.34293636081E-01  0.10605990167E+02  0.10606056750E+02  0.10000000000E-01 0.  1.
</event>
<event>
 7   0  0.6206631E-02  0.9118800E+02  0.7818608E-02  0.1180000E+00
       11   -1    0    0    0    0  0.00000000000E+00  0.00000000000E+00  0.11999999989E+02  0.12000000000E+02  0.51109989000E-03 0. -1.
     -623   -1    0    0    0    0  0.00000000000E+00  0.00000000000E+00  0.42561509872E-11  0.25126700000E+02  0.25126700000E+02 0.  1.
      622    2    1    2    0    0  0.24813379430E-01 -0.19355475063E-01  0.15192750302E+01  0.15213527450E+01  0.72987801018E-01 0.  0.
       11    1    1    2    0    0 -0.23593609667E-01  0.19942260300E-01  0.10478601578E+02  0.10478647129E+02  0.51109989000E-03 0. -1.
     -623    1    1    2    0    0 -0.12197697630E-02 -0.58678523627E-03  0.21233806033E-02  0.25126700126E+02  0.25126700000E+02 0.  1.
     -611    1    3    3    0    0 -0.61164644109E-02 -0.30164249191E-01  0.11592589088E+01  0.11597105288E+01  0.10000000000E-01 0. -1.
      611    1    3    3    0    0  0.30929843841E-01  0.10808774127E-01  0.36001612144E+00  0.36164221619E+00  0.10000000000E-01 0.  1.
</event>
<event>
 7   0  0.6206631E-02  0.9118800E+02  0.7818608E-02  0.1180000E+00
       11   -1    0    0    0    0  0.00000000000E+00  0.00000000000E+00  0.11999999989E+02  0.12000000000E+02  0.51109989000E-03 0.  1.
     -623   -1    0    0    0    0  0.00000000000E+00  0.00000000000E+00  0.42561509872E-11  0.25126700000E+02  0.25126700000E+02 0. -1.
      622    2    1    2    0    0 -0.71137984000E-02 -0.24574280185E-01  0.11013155673E+02  0.11013770474E+02  0.11352390407E+00 0.  0.
       11    1    1    2    0    0 -0.17711996470E-02  0.22790201836E-01  0.98596279473E+00  0.98622787644E+00  0.51109989000E-03 0.  1.
     -623    1    1    2    0    0  0.88849980471E-02  0.17840783495E-02  0.88152161949E-03  0.25126701650E+02  0.25126700000E+02 0. -1.
     -611    1    3    3    0    0 -0.49979668859E-01 -0.19934545904E-01  0.88114153221E+01  0.88115852905E+01  0.10000000000E-01 0.  1.
      611    1    3    3    0    0  0.42865870459E-01 -0.46397342817E-02  0.22017403506E+01  0.22021851833E+01  0.10000000000E-01 0. -1.
</event>
<event>
 7   0  0.6206631E-02  0.9118800E+02  0.7818608E-02  0.1180000E+00
       11   -1    0    0    0    0  0.00000000000E+00  0.00000000000E+00  0.11999999989E+02  0.12000000000E+02  0.51109989000E-03 0.  1.
     -623   -1    0    0    0    0  0.00000000000E+00  0.00000000000E+00  0.42561509872E-11  0.25126700000E+02  0.25126700000E+02 0.  1.
      622    2    1    2    0    0 -0.23109423161E-01  0.18401728766E-02  0.11666967336E+02  0.11667515683E+02  0.11071570666E+00 0.  0.
       11    1    1    2    0    0  0.47428015324E-02 -0.51030515232E-02  0.33240399348E+00  0.33247738481E+00  0.51109989000E-03 0.  1.
     -623    1    1    2    0    0  0.18366621628E-01  0.32628786466E-02  0.62866003769E-03  0.25126706932E+02  0.25126700000E+02 0.  1.
     -611    1    3    3    0    0 -0.20658416033E-01  0.32047848577E-01  0.15599481256E+01  0.15604460866E+01  0.10000000000E-01 0. -1.
      611    1    3    3    0    0 -0.24510071276E-02 -0.30207675701E-01  0.10107019210E+02  0.10107069596E+02  0.10000000000E-01 0.  1.
</event>
<event>
 7   0  0.6206631E-02  0.9118800E+02  0.7818608E-02  0.1180000E+00
       11   -1    0    0    0    0  0.00000000000E+00  0.00000000000E+00  0.11999999989E+02  0.12000000000E+02  0.51109989000E-03 0.  1.
     -623   -1    0    0    0    0  0.00000000000E+00  0.00000000000E+00  0.42561509872E-11  0.25126700000E+02  0.25126700000E+02 0.  1.
      622    2    1    2    0    0 -0.46572870765E-02 -0.52513092242E-02  0.11925132443E+02  0.11925658499E+02  0.11179254530E+00 0.  0.
       11    1    1    2    0    0  0.56462908476E-02  0.45727316812E-02  0.73983785455E-01  0.74341456865E-01  0.51109989000E-03 0.  1.
     -623    1    1    2    0    0 -0.98900377110E-03  0.67857754297E-03  0.88376019853E-03  0.25126700044E+02  0.25126700000E+02 0.  1.
     -611    1    3    3    0    0  0.24120624183E-01  0.27748971049E-01  0.16980638396E+01  0.16984912756E+01  0.10000000000E-01 0. -1.
      611    1    3    3    0    0 -0.28777911259E-01 -0.33000280273E-01  0.10227068604E+02  0.10227167223E+02  0.10000000000E-01 0.  1.
</event>
<event>
 7   0  0.6206631E-02  0.9118800E+02  0.7818608E-02  0.1180000E+00
       11   -1    0    0    0    0  0.00000000000E+00  0.00000000000E+00  0.11999999989E+02  0.12000000000E+02  0.51109989000E-03 0. -1.
     -623   -1    0    0    0    0  0.00000000000E+00  0.00000000000E+00  0.42561509872E-11  0.25126700000E+02  0.25126700000E+02 0. -1.
      622    2    1    2    0    0 -0.85927528185E-01 -0.39652298601E-01  0.95338621691E+01  0.95344833217E+01  0.53744840451E-01 0.  0.
       11    1    1    2    0    0  0.85720486568E-01  0.27306020063E-01  0.24638715762E+01  0.24655135420E+01  0.51109989000E-03 0. -1.
     -623    1    1    2    0    0  0.20704161814E-03  0.12346278538E-01  0.22662438300E-02  0.25126703136E+02  0.25126700000E+02 0. -1.
     -611    1    3    3    0    0 -0.36627759016E-02 -0.34786908489E-02  0.26966516377E+01  0.26966749104E+01  0.10000000000E-01 0.  1.
      611    1    3    3    0    0 -0.82264752284E-01 -0.36173607752E-01  0.68372105314E+01  0.68378084113E+01  0.10000000000E-01 0. -1.
</event>
<event>
 7   0  0.6206631E-02  0.9118800E+02  0.7818608E-02  0.1180000E+00
       11   -1    0    0    0    0  0.00000000000E+00  0.00000000000E+00  0.11999999989E+02  0.12000000000E+02  0.51109989000E-03 0.  1.
     -623   -1    0    0    0    0  0.00000000000E+00  0.00000000000E+00  0.42561509872E-11  0.25126700000E+02  0.25126700000E+02 0. -1.
      622    2    1    2    0    0 -0.30185965529E-01 -0.14068098754E-01  0.92627299737E+01  0.92634158901E+01  0.10769532463E+00 0.  0.
       11    1    1    2    0    0  0.23687673082E-01  0.77822297392E-02  0.27364688356E+01  0.27365824706E+01  0.51109989000E-03 0.  1.
     -623    1    1    2    0    0  0.64982924466E-02  0.62858690152E-02  0.80117982521E-03  0.25126701639E+02  0.25126700000E+02 0. -1.
     -611    1    3    3    0    0  0.30717474336E-01  0.20844685142E-01  0.44142655989E+01  0.44144330147E+01  0.10000000000E-01 0.  1.
      611    1    3    3    0    0 -0.60903439865E-01 -0.34912783896E-01  0.48484643748E+01  0.48489828753E+01  0.10000000000E-01 0. -1.
</event>
<event>
 7   0  0.6206631E-02  0.9118800E+02  0.7818608E-02  0.1180000E+00
       11   -1    0    0    0    0  0.00000000000E+00  0.00000000000E+00  0.11999999989E+02  0.12000000000E+02  0.51109989000E-03 0.  1.
     -623   -1    0    0    0    0  0.00000000000E+00  0.00000000000E+00  0.42561509872E-11  0.25126700000E+02  0.25126700000E+02 0.  1.
      622    2    1    2    0    0  0.58098616662E-01 -0.10918076772E+00  0.56615110129E+01  0.56634502820E+01  0.81647162506E-01 0.  0.
       11    1    1    2    0    0 -0.60822051504E-01  0.10839487695E+00  0.63353302008E+01  0.63365493595E+01  0.51109989000E-03 0.  1.
     -623    1    1    2    0    0  0.27234348408E-02  0.78589077570E-03  0.31587754631E-02  0.25126700358E+02  0.25126700000E+02 0.  1.
     -611    1    3    3    0    0  0.67625069485E-01 -0.11172964410E+00  0.46589297334E+01  0.46607706363E+01  0.10000000000E-01 0.  1.
      611    1    3    3    0    0 -0.95264528225E-02  0.25488763790E-02  0.10025812794E+01  0.10026796457E+01  0.10000000000E-01 0. -1.
</event>
<event>
 7   0  0.6206631E-02  0.9118800E+02  0.7818608E-02  0.1180000E+00
       11   -1    0    0    0    0  0.00000000000E+00  0.00000000000E+00  0.11999999989E+02  0.12000000000E+02  0.51109989000E-03 0.  1.
     -623   -1    0    0    0    0  0.00000000000E+00  0.00000000000E+00  0.42561509872E-11  0.25126700000E+02  0.25126700000E+02 0.  1.
      622    2    1    2    0    0  0.25847958228E-01 -0.12017244767E-01  0.10911434035E+02  0.10911982484E+02  0.10562428917E+00 0.  0.
       11    1    1    2    0    0  0.67932619731E-02 -0.61525657721E-01  0.10861260174E+01  0.10878885705E+01  0.51109989000E-03 0.  1.
     -623    1    1    2    0    0 -0.32641220201E-01  0.73542902488E-01  0.24399362004E-02  0.25126828945E+02  0.25126700000E+02 0.  1.
     -611    1    3    3    0    0  0.42617225496E-01 -0.35912144031E-01  0.32986211289E+01  0.32991070401E+01  0.10000000000E-01 0.  1.
      611    1    3    3    0    0 -0.16769267269E-01  0.23894899264E-01  0.76128129065E+01  0.76128754439E+01  0.10000000000E-01 0. -1.
</event>
<event>
 7   0  0.6206631E-02  0.9118800E+02  0.7818608E-02  0.1180000E+00
       11   -1    0    0    0    0  0.00000000000E+00  0.00000000000E+00  0.11999999989E+02  0.12000000000E+02  0.51109989000E-03 0.  1.
     -623   -1    0    0    0    0  0.00000000000E+00  0.00000000000E+00  0.42561509872E-11  0.25126700000E+02  0.25126700000E+02 0.  1.
      622    2    1    2    0    0 -0.19977559789E-01 -0.15157189811E-02  0.11965140184E+02  0.11966005052E+02  0.14246357784E+00 0.  0.
       11    1    1    2    0    0  0.80266502338E-03  0.36725489565E-02  0.33775110789E-01  0.33987515633E-01  0.51109989000E-03 0.  1.
     -623    1    1    2    0    0  0.19174894766E-01 -0.21568299754E-02  0.10846939619E-02  0.25126707432E+02  0.25126700000E+02 0.  1.
     -611    1    3    3    0    0  0.40672765419E-01  0.44379480668E-01  0.36403981097E+01  0.36409095304E+01  0.10000000000E-01 0.  1.
      611    1    3    3    0    0 -0.60650325208E-01 -0.45895199649E-01  0.83247420747E+01  0.83250955215E+01  0.10000000000E-01 0. -1.
</event>
<event>
 7   0  0.6206631E-02  0.9118800E+02  0.7818608E-02  0.1180000E+00
       11   -1    0    0    0    0  0.00000000000E+00  0.00000000000E+00  0.11999999989E+02  0.12000000000E+02  0.51109989000E-03 0.  1.
     -623   -1    0    0    0    0  0.00000000000E+00  0.00000000000E+00  0.42561509872E-11  0.25126700000E+02  0.25126700000E+02 0. -1.
      622    2    1    2    0    0 -0.84900879225E-01 -0.12879666776E+00  0.31024025854E+01  0.31071356780E+01  0.74790234210E-01 0.  0.
       11    1    1    2    0    0  0.92704923356E-01  0.10327646282E+00  0.88917664874E+01  0.88928494735E+01  0.51109989000E-03 0.  1.
     -623    1    1    2    0    0 -0.78040441316E-02  0.25520204949E-01  0.58309163032E-02  0.25126714848E+02  0.25126700000E+02 0. -1.
     -611    1    3    3    0    0 -0.96388285139E-01 -0.10863289231E+00  0.25440356606E+01  0.25481972548E+01  0.10000000000E-01 0.  1.
      611    1    3    3    0    0  0.11487405914E-01 -0.20163775458E-01  0.55836692473E+00  0.55893842323E+00  0.10000000000E-01 0. -1.
</event>
<event>
 7   0  0.6206631E-02  0.9118800E+02  0.7818608E-02  0.1180000E+00
       11   -1    0    0    0    0  0.00000000000E+00  0.00000000000E+00  0.11999999989E+02  0.12000000000E+02  0.51109989000E-03 0.  1.
     -623   -1    0    0    0    0  0.00000000000E+00  0.00000000000E+00  0.42561509872E-11  0.25126700000E+02  0.25126700000E+02 0.  1.
      622    2    1    2    0    0  0.14104542245E-02  0.95175173009E-02  0.11936804349E+02  0.11937236044E+02  0.10106303730E+00 0.  0.
       11    1    1    2    0    0 -0.94057159284E-03 -0.98385086708E-02  0.61978766785E-01  0.62763920234E-01  0.51109989000E-03 0.  1.
     -623    1    1    2    0    0 -0.46988263162E-03  0.32099136994E-03  0.12168737370E-02  0.25126700036E+02  0.25126700000E+02 0.  1.
     -611    1    3    3    0    0  0.46371126073E-01  0.17549535140E-01  0.44889027646E+01  0.44891877102E+01  0.10000000000E-01 0.  1.
      611    1    3    3    0    0 -0.44960671849E-01 -0.80320178391E-02  0.74479015840E+01  0.74480483336E+01  0.10000000000E-01 0. -1.
</event>
<event>
 7   0  0.6206631E-02  0.9118800E+02  0.7818608E-02  0.1180000E+00
       11   -1    0    0    0    0  0.00000000000E+00  0.00000000000E+00  0.11999999989E+02  0.12000000000E+02  0.51109989000E-03 0.  1.
     -623   -1    0    0    0    0  0.00000000000E+00  0.00000000000E+00  0.42561509872E-11  0.25126700000E+02  0.25126700000E+02 0. -1.
      622    2    1    2    0    0 -0.18356447322E-01 -0.17501844586E-02  0.11852566179E+02  0.11852925761E+02  0.90465789635E-01 0.  0.
       11    1    1    2    0    0  0.14805066428E-01 -0.93213953871E-02  0.14602633036E+00  0.14707150909E+00  0.51109989000E-03 0.  1.
     -623    1    1    2    0    0  0.35513808940E-02  0.11071579846E-01  0.14074800345E-02  0.25126702730E+02  0.25126700000E+02 0. -1.
     -611    1    3    3    0    0 -0.21011659202E-02  0.14535203018E-01  0.10940906640E+02  0.10940921067E+02  0.10000000000E-01 0.  1.
      611    1    3    3    0    0 -0.16255281402E-01 -0.16285387476E-01  0.91165953857E+00  0.91200469422E+00  0.10000000000E-01 0. -1.
</event>
<event>
 7   0  0.6206631E-02  0.9118800E+02  0.7818608E-02  0.1180000E+00
       11   -1    0    0    0    0  0.00000000000E+00  0.00000000000E+00  0.11999999989E+02  0.12000000000E+02  0.51109989000E-03 0. -1.
     -623   -1    0    0    0    0  0.00000000000E+00  0.00000000000E+00  0.42561509872E-11  0.25126700000E+02  0.25126700000E+02 0.  1.
      622    2    1    2    0    0  0.14358092377E-02  0.45449733209E-03  0.11998060876E+02  0.11998470519E+02  0.99134923709E-01 0.  0.
       11    1    1    2    0    0  0.48119237420E-03  0.97508413657E-03  0.94622718368E-03  0.15293476420E-02  0.51109989000E-03 0. -1.
     -623    1    1    2    0    0 -0.19170016119E-02 -0.14295814687E-02  0.99288557820E-03  0.25126700133E+02  0.25126700000E+02 0.  1.
     -611    1    3    3    0    0 -0.20816083516E-01 -0.77314759751E-02  0.11133836456E+02  0.11133863090E+02  0.10000000000E-01 0. -1.
      611    1    3    3    0    0  0.22251892754E-01  0.81859733072E-02  0.86422442040E+00  0.86460742867E+00  0.10000000000E-01 0.  1.
</event>
<event>
 7   0  0.6206631E-02  0.9118800E+02  0.7818608E-02  0.1180000E+00
       11   -1    0    0    0    0  0.00000000000E+00  0.00000000000E+00  0.11999999989E+02  0.12000000000E+02  0.51109989000E-03 0. -1.
     -623   -1    0    0    0    0  0.00000000000E+00  0.00000000000E+00  0.42561509872E-11  0.25126700000E+02  0.25126700000E+02 0.  1.
      622    2    1    2    0    0  0.77137142449E-01  0.86691952359E-01  0.59826694490E+01  0.59848832067E+01  0.11413863448E+00 0.  0.
       11    1    1    2    0    0 -0.51066499909E-01 -0.88818915506E-01  0.60142303827E+01  0.60151029870E+01  0.51109989000E-03 0. -1.
     -623    1    1    2    0    0 -0.26070642540E-01  0.21269631473E-02  0.31001573920E-02  0.25126713806E+02  0.25126700000E+02 0.  1.
     -611    1    3    3    0    0 -0.91217492630E-02  0.17933967368E-01  0.21899795455E+00  0.22014753597E+00  0.10000000000E-01 0.  1.
      611    1    3    3    0    0  0.86258891712E-01  0.68757984991E-01  0.57636714945E+01  0.57647356707E+01  0.10000000000E-01 0. -1.
</event>
<event>
 7   0  0.6206631E-02  0.9118800E+02  0.7818608E-02  0.1180000E+00
       11   -1    0    0    0    0  0.00000000000E+00  0.00000000000E+00  0.11999999989E+02  0.12000000000E+02  0.51109989000E-03 0.  1.
     -623   -1    0    0    0    0  0.00000000000E+00  0.00000000000E+00  0.42561509872E-11  0.25126700000E+02  0.25126700000E+02 0. -1.
      622    2    1    2    0    0  0.78982645449E-02  0.35485997507E-01  0.10811297085E+02  0.10812185151E+02  0.13372150280E+00 0.  0.
       11    1    1    2    0    0 -0.51243643491E-02  0.25327168413E-02  0.11877720522E+01  0.11877859164E+01  0.51109989000E-03 0.  1.
     -623    1    1    2    0    0 -0.27739001958E-02 -0.38018714348E-01  0.93085222837E-03  0.25126728933E+02  0.25126700000E+02 0. -1.
     -611    1    3    3    0    0  0.29680374776E-01 -0.19700888796E-01  0.85721568815E+01  0.85722367355E+01  0.10000000000E-01 0. -1.
      611    1    3    3    0    0 -0.21782110231E-01  0.55186886303E-01  0.22391402032E+01  0.22399484151E+01  0.10000000000E-01 0.  1.
</event>
<event>
 7   0  0.6206631E-02  0.9118800E+02  0.7818608E-02  0.1180000E+00
       11   -1    0    0    0    0  0.00000000000E+00  0.00000000000E+00  0.11999999989E+02  0.12000000000E+02  0.51109989000E-03 0.  1.
     -623   -1    0    0    0    0  0.00000000000E+00  0.00000000000E+00  0.42561509872E-11  0.25126700000E+02  0.25126700000E+02 0. -1.
      622    2    1    2    0    0 -0.31047919231E-02 -0.12177261420E-01  0.11945106764E+02  0.11945666551E+02  0.11496003740E+00 0.  0.
       11    1    1    2    0    0  0.90539648556E-02  0.81387948864E-02  0.52948354521E-01  0.54332345168E-01  0.51109989000E-03 0.  1.
     -623    1    1    2    0    0 -0.59491729326E-02  0.40384665338E-02  0.19448704950E-02  0.25126701104E+02  0.25126700000E+02 0. -1.
     -611    1    3    3    0    0 -0.10587545282E-01  0.19910812761E-01  0.59924590941E+00  0.59975344644E+00  0.10000000000E-01 0.  1.
      611    1    3    3    0    0  0.74827533590E-02 -0.32088074181E-01  0.11345860855E+02  0.11345913104E+02  0.10000000000E-01 0.  1.
</event>
<event>
 7   0  0.6206631E-02  0.9118800E+02  0.7818608E-02  0.1180000E+00
       11   -1    0    0    0    0  0.00000000000E+00  0.00000000000E+00  0.11999999989E+02  0.12000000000E+02  0.51109989000E-03 0.  1.
     -623   -1    0    0    0    0  0.00000000000E+00  0.00000000000E+00  0.42561509872E-11  0.25126700000E+02  0.25126700000E+02 0. -1.
      622    2    1    2    0    0 -0.14719425888E-01 -0.19807941601E-01  0.11854509250E+02  0.11854955772E+02  0.99888947904E-01 0.  0.
       11    1    1    2    0    0  0.10403469660E-01  0.19765284951E-01  0.14331271108E+00  0.14504376254E+00  0.51109989000E-03 0.  1.
     -623    1    1    2    0    0  0.43159562280E-02  0.42656650244E-04  0.21780285331E-02  0.25126700465E+02  0.25126700000E+02 0. -1.
     -611    1    3    3    0    0  0.22009417056E-01  0.30723923423E-01  0.51276040038E+01  0.51277530355E+01  0.10000000000E-01 0.  1.
      611    1    3    3    0    0 -0.36728842944E-01 -0.50531865024E-01  0.67269052457E+01  0.67272027368E+01  0.10000000000E-01 0. -1.
</event>
<event>
 7   0  0.6206631E-02  0.9118800E+02  0.7818608E-02  0.1180000E+00
       11   -1    0    0    0    0  0.00000000000E+00  0.00000000000E+00  0.11999999989E+02  0.12000000000E+02  0.51109989000E-03 0.  1.
     -623   -1    0    0    0    0  0.00000000000E+00  0.00000000000E+00  0.42561509872E-11  0.25126700000E+02  0.25126700000E+02 0.  1.
      622    2    1    2    0    0  0.79676334458E-01  0.63157875272E-01  0.10896497589E+02  0.10897186804E+02  0.68434563832E-01 0.  0.
       11    1    1    2    0    0 -0.90086090472E-01 -0.22223671608E-01  0.10988667113E+01  0.11027772693E+01  0.51109989000E-03 0.  1.
     -623    1    1    2    0    0  0.10409756015E-01 -0.40934203665E-01  0.46356888357E-02  0.25126735927E+02  0.25126700000E+02 0.  1.
     -611    1    3    3    0    0  0.65204178988E-01  0.12385215711E-01  0.51346304506E+01  0.51350691176E+01  0.10000000000E-01 0.  1.
      611    1    3    3    0    0  0.14472155470E-01  0.50772659561E-01  0.57618671384E+01  0.57621176860E+01  0.10000000000E-01 0. -1.
</event>
<event>
 7   0  0.6206631E-02  0.9118800E+02  0.7818608E-02  0.1180000E+00
       11   -1    0    0    0    0  0.00000000000E+00  0.00000000000E+00  0.11999999989E+02  0.12000000000E+02  0.51109989000E-03 0. -1.
     -623   -1    0    0    0    0  0.00000000000E+00  0.00000000000E+00  0.42561509872E-11  0.25126700000E+02  0.25126700000E+02 0.  1.
      622    2    1    2    0    0 -0.35590333679E-01 -0.17731891189E-01  0.90218878665E+01  0.90223074362E+01  0.77393193902E-01 0.  0.
       11    1    1    2    0    0  0.36145824858E-01  0.19861682705E-01  0.29774067748E+01  0.29776924574E+01  0.51109989000E-03 0. -1.
     -623    1    1    2    0    0 -0.55549117864E-03 -0.21297915152E-02  0.70534777464E-03  0.25126700106E+02  0.25126700000E+02 0.  1.
     -611    1    3    3    0    0 -0.48988638954E-01 -0.31337348210E-02  0.80906943545E+01  0.80908494513E+01  0.10000000000E-01 0. -1.
      611    1    3    3    0    0  0.13398305275E-01 -0.14598156368E-01  0.93119351203E+00  0.93145798488E+00  0.10000000000E-01 0.  1.
</event>
<event>
 7   0  0.6206631E-02  0.9118800E+02  0.7818608E-02  0.1180000E+00
       11   -1    0    0    0    0  0.00000000000E+00  0.00000000000E+00  0.11999999989E+02  0.12000000000E+02  0.51109989000E-03 0. -1.
     -623   -1    0    0    0    0  0.00000000000E+00  0.00000000000E+00  0.42561509872E-11  0.25126700000E+02  0.25126700000E+02 0.  1.
      622    2    1    2    0    0 -0.62415324720E-02  0.12516387519E-01  0.11861992516E+02  0.11862246954E+02  0.76424795143E-01 0.  0.
       11    1    1    2    0    0  0.61442883308E-02 -0.49427778601E-02  0.13752505674E+00  0.13775189939E+00  0.51109989000E-03 0. -1.
     -623    1    1    2    0    0  0.97244141167E-04 -0.75736096588E-02  0.48241675627E-03  0.25126701146E+02  0.25126700000E+02 0.  1.
     -611    1    3    3    0    0 -0.27068135557E-01  0.34559341241E-01  0.61159942172E+01  0.61161599306E+01  0.10000000000E-01 0. -1.
      611    1    3    3    0    0  0.20826603085E-01 -0.22042953722E-01  0.57459982985E+01  0.57460870238E+01  0.10000000000E-01 0.  1.
</event>
<event>
 7   0  0.6206631E-02  0.9118800E+02  0.7818608E-02  0.1180000E+00
       11   -1    0    0    0    0  0.00000000000E+00  0.00000000000E+00  0.11999999989E+02  0.12000000000E+02  0.51109989000E-03 0. -1.
     -623   -1    0    0    0    0  0.00000000000E+00  0.00000000000E+00  0.42561509872E-11  0.25126700000E+02  0.25126700000E+02 0.  1.
      622    2    1    2    0    0 -0.58893976994E-01  0.82172358616E-01  0.11421369981E+02  0.11422179470E+02  0.90943989674E-01 0.  0.
       11    1    1    2    0    0  0.52387704979E-01 -0.29885976161E-01  0.57460808322E+00  0.57776496409E+00  0.51109989000E-03 0. -1.
     -623    1    1    2    0    0  0.65062720152E-02 -0.52286382454E-01  0.40219249732E-02  0.25126755566E+02  0.25126700000E+02 0.  1.
     -611    1    3    3    0    0 -0.77717620053E-01  0.56172838666E-01  0.97144904133E+01  0.97149688320E+01  0.10000000000E-01 0. -1.
      611    1    3    3    0    0  0.18823643059E-01  0.25999519949E-01  0.17068795676E+01  0.17072106381E+01  0.10000000000E-01 0.  1.
</event>
<event>
 7   0  0.6206631E-02  0.9118800E+02  0.7818608E-02  0.1180000E+00
       11   -1    0    0    0    0  0.00000000000E+00  0.00000000000E+00  0.11999999989E+02  0.12000000000E+02  0.51109989000E-03 0. -1.
     -623   -1    0    0    0    0  0.00000000000E+00  0.00000000000E+00  0.42561509872E-11  0.25126700000E+02  0.25126700000E+02 0.  1.
      622    2    1    2    0    0  0.14340404970E-02 -0.59975186437E-02  0.11886680203E+02  0.11887490100E+02  0.13862395395E+00 0.  0.
       11    1    1    2    0    0 -0.30258828832E-02  0.58421516315E-02  0.11231613308E+00  0.11250982924E+00  0.51109989000E-03 0. -1.
     -623    1    1    2    0    0  0.15918423862E-02  0.15536701221E-03  0.10036531512E-02  0.25126700071E+02  0.25126700000E+02 0.  1.
     -611    1    3    3    0    0  0.67398661098E-01  0.19994693422E-03  0.73390462721E+01  0.73393625611E+01  0.10000000000E-01 0.  1.
      611    1    3    3    0    0 -0.65964620601E-01 -0.61974655780E-02  0.45476339308E+01  0.45481275387E+01  0.10000000000E-01 0. -1.
</event>
<event>
 7   0  0.6206631E-02  0.9118800E+02  0.7818608E-02  0.1180000E+00
       11   -1    0    0    0    0  0.00000000000E+00  0.00000000000E+00  0.11999999989E+02  0.12000000000E+02  0.51109989000E-03 0. -1.
     -623   -1    0    0    0    0  0.00000000000E+00  0.00000000000E+00  0.42561509872E-11  0.25126700000E+02  0.25126700000E+02 0. -1.
      622    2    1    2    0    0 -0.57342414910E-02 -0.12914424787E-02  0.11976362505E+02  0.11976832456E+02  0.10593521548E+00 0.  0.
       11    1    1    2    0    0  0.36755954482E-02 -0.40147966368E-02  0.22512535734E-01  0.23166874675E-01  0.51109989000E-03 0. -1.
     -623    1    1    2    0    0  0.20586460427E-02  0.53062391155E-02  0.11249484982E-02  0.25126700670E+02  0.25126700000E+02 0. -1.
     -611    1    3    3    0    0 -0.13839603362E-01 -0.36846210250E-01  0.20728706722E+01  0.20732684345E+01  0.10000000000E-01 0. -1.
      611    1    3    3    0    0  0.81053618710E-02  0.35554767771E-01  0.99034918327E+01  0.99035640210E+01  0.10000000000E-01 0.  1.
</event>
<event>
 7   0  0.6206631E-02  0.9118800E+02  0.7818608E-02  0.1180000E+00
       11   -1    0    0    0    0  0.00000000000E+00  0.00000000000E+00  0.11999999989E+02  0.12000000000E+02  0.51109989000E-03 0.  1.
     -623   -1    0    0    0    0  0.00000000000E+00  0.00000000000E+00  0.42561509872E-11  0.25126700000E+02  0.25126700000E+02 0.  1.
      622    2    1    2    0    0 -0.50402792997E-02  0.19540984095E-01  0.11408435339E+02  0.11409125709E+02  0.12387619329E+00 0.  0.
       11    1    1    2    0    0  0.11712163865E-01 -0.10188206281E-01  0.59066747813E+00  0.59087164873E+00  0.51109989000E-03 0.  1.
     -623    1    1    2    0    0 -0.66718845652E-02 -0.93527778140E-02  0.89717246450E-03  0.25126702642E+02  0.25126700000E+02 0.  1.
     -611    1    3    3    0    0 -0.17149842982E-01  0.31407169765E-02  0.30242957807E+00  0.30309673523E+00  0.10000000000E-01 0. -1.
      611    1    3    3    0    0  0.12109563682E-01  0.16400267118E-01  0.11106005760E+02  0.11106028974E+02  0.10000000000E-01 0.  1.
</event>
<event>
 7   0  0.6206631E-02  0.9118800E+02  0.7818608E-02  0.1180000E+00
       11   -1    0    0    0    0  0.00000000000E+00  0.00000000000E+00  0.11999999989E+02  0.12000000000E+02  0.51109989000E-03 0. -1.
     -623   -1    0    0    0    0  0.00000000000E+00  0.00000000000E+00  0.42561509872E-11  0.25126700000E+02  0.25126700000E+02 0. -1.
      622    2    1    2    0    0 -0.10099601875E+00  0.64543041458E-01  0.10629739574E+02  0.10631208661E+02  0.12987755614E+00 0.  0.
       11    1    1    2    0    0  0.10914908123E+00 -0.55129597599E-01  0.13633141958E+01  0.13687872926E+01  0.51109989000E-03 0. -1.
     -623    1    1    2    0    0 -0.81530624817E-02 -0.94134438595E-02  0.69462188928E-02  0.25126704046E+02  0.25126700000E+02 0. -1.
     -611    1    3    3    0    0 -0.11171866036E+00  0.26754656379E-02  0.72991603581E+01  0.73000226130E+01  0.10000000000E-01 0. -1.
      611    1    3    3    0    0  0.10722641614E-01  0.61867575821E-01  0.33305792163E+01  0.33311860482E+01  0.10000000000E-01 0.  1.
</event>
<event>
 7   0  0.6206631E-02  0.9118800E+02  0.7818608E-02  0.1180000E+00
       11   -1    0    0    0    0  0.00000000000E+00  0.00000000000E+00  0.11999999989E+02  0.12000000000E+02  0.51109989000E-03 0.  1.
     -623   -1    0    0    0    0  0.00000000000E+00  0.00000000000E+00  0.42561509872E-11  0.25126700000E+02  0.25126700000E+02 0. -1.
      622    2    1    2    0    0  0.14723450708E-01  0.69146600144E-01  0.11574597499E+02  0.11575524369E+02  0.12829304352E+00 0.  0.
       11    1    1    2    0    0 -0.15538714402E-01 -0.59972180662E-01  0.41992766842E+00  0.42447334666E+00  0.51109989000E-03 0.  1.
     -623    1    1    2    0    0  0.81526369391E-03 -0.91744194820E-02  0.54748212527E-02  0.25126702285E+02  0.25126700000E+02 0. -1.
     -611    1    3    3    0    0 -0.63229197202E-02 -0.22926633075E-01  0.64704813996E+00  0.64756227904E+00  0.10000000000E-01 0. -1.
      611    1    3    3    0    0  0.21046370428E-01  0.92073233219E-01  0.10927549360E+02  0.10927962090E+02  0.10000000000E-01 0.  1.
</event>
<event>
 7   0  0.6206631E-02  0.9118800E+02  0.7818608E-02  0.1180000E+00
       11   -1    0    0    0    0  0.00000000000E+00  0.00000000000E+00  0.11999999989E+02  0.12000000000E+02  0.51109989000E-03 0.  1.
     -623   -1    0    0    0    0  0.00000000000E+00  0.00000000000E+00  0.42561509872E-11  0.25126700000E+02  0.25126700000E+02 0. -1.
      622    2    1    2    0    0  0.65983491964E-03 -0.48773777573E-04  0.11959491713E+02  0.11959571187E+02  0.43594633167E-01 0.  0.
       11    1    1    2    0    0 -0.68780330937E-03  0.41816040237E-03  0.40417564982E-01  0.40428810442E-01  0.51109989000E-03 0.  1.
     -623    1    1    2    0    0  0.27968389723E-04 -0.36938662479E-03  0.90710897320E-04  0.25126700003E+02  0.25126700000E+02 0. -1.
     -611    1    3    3    0    0 -0.14708709977E-01  0.10275108849E-01  0.41166724269E+01  0.41167236724E+01  0.10000000000E-01 0. -1.
      611    1    3    3    0    0  0.15368544897E-01 -0.10323882627E-01  0.78428192863E+01  0.78428475143E+01  0.10000000000E-01 0.  1.
</event>
<event>
 7   0  0.6206631E-02  0.9118800E+02  0.7818608E-02  0.1180000E+00
       11   -1    0    0    0    0  0.00000000000E+00  0.00000000000E+00  0.11999999989E+02  0.12000000000E+02  0.51109989000E-03 0. -1.
     -623   -1    0    0    0    0  0.00000000000E+00  0.00000000000E+00  0.42561509872E-11  0.25126700000E+02  0.25126700000E+02 0. -1.
      622    2    1    2    0    0 -0.72964086962E-03 -0.63440544778E-03  0.11981199378E+02  0.11981325774E+02  0.55025857958E-01 0.  0.
       11    1    1    2    0    0  0.38361072628E-03  0.73159283869E-03  0.18648940675E-01  0.18674222788E-01  0.51109989000E-03 0. -1.
     -623    1    1    2    0    0  0.34603014333E-03 -0.97187390914E-04  0.15167078571E-03  0.25126700003E+02  0.25126700000E+02 0. -1.
     -611    1    3    3    0    0  0.89096266074E-02 -0.37360783714E-02  0.11120896506E+02  0.11120905199E+02  0.10000000000E-01 0. -1.
      611    1    3    3    0    0 -0.96392674770E-02  0.31016729237E-02  0.86030287136E+00  0.86042057525E+00  0.10000000000E-01 0.  1.
</event>
<event>
 7   0  0.6206631E-02  0.9118800E+02  0.7818608E-02  0.1180000E+00
       11   -1    0    0    0    0  0.00000000000E+00  0.00000000000E+00  0.11999999989E+02  0.12000000000E+02  0.51109989000E-03 0.  1.
     -623   -1    0    0    0    0  0.00000000000E+00  0.00000000000E+00  0.42561509872E-11  0.25126700000E+02  0.25126700000E+02 0.  1.
      622    2    1    2    0    0  0.52537735656E-02  0.90421146384E-02  0.11976242176E+02  0.11976588584E+02  0.90488019080E-01 0.  0.
       11    1    1    2    0    0 -0.12092322259E-01  0.16790584984E-03  0.20036097979E-01  0.23408521853E-01  0.51109989000E-03 0.  1.
     -623    1    1    2    0    0  0.68385486931E-02 -0.92100204883E-02  0.37217147937E-02  0.25126702894E+02  0.25126700000E+02 0.  1.
     -611    1    3    3    0    0 -0.33975858532E-02 -0.20571178067E-01  0.10335745889E+02  0.10335771756E+02  0.10000000000E-01 0.  1.
      611    1    3    3    0    0  0.86513594188E-02  0.29613292705E-01  0.16404962877E+01  0.16408168280E+01  0.10000000000E-01 0. -1.
</event>
<event>
 7   0  0.6206631E-02  0.9118800E+02  0.7818608E-02  0.1180000E+00
       11   -1    0    0    0    0  0.00000000000E+00  0.00000000000E+00  0.11999999989E+02  0.12000000000E+02  0.51109989000E-03 0. -1.
     -623   -1    0    0    0    0  0.00000000000E+00  0.00000000000E+00  0.42561509872E-11  0.25126700000E+02  0.25126700000E+02 0. -1.
      622    2    1    2    0    0  0.46530508304E-01  0.17803387998E-01  0.63793813635E+01  0.63804587585E+01  0.10613830280E+00 0.  0.
       11    1    1    2    0    0 -0.87685150301E-01 -0.45738771509E-01  0.56186215897E+01  0.56194919299E+01  0.51109989000E-03 0. -1.
     -623    1    1    2    0    0  0.41154641997E-01  0.27935383510E-01  0.19970359482E-02  0.25126749312E+02  0.25126700000E+02 0. -1.
     -611    1    3    3    0    0  0.99533500567E-03  0.47301340434E-01  0.45212269282E+01  0.45214855240E+01  0.10000000000E-01 0. -1.
      611    1    3    3    0    0  0.45535173298E-01 -0.29497952436E-01  0.18581544353E+01  0.18589732345E+01  0.10000000000E-01 0.  1.
</event>
<event>
 7   0  0.6206631E-02  0.9118800E+02  0.7818608E-02  0.1180000E+00
       11   -1    0    0    0    0  0.00000000000E+00  0.00000000000E+00  0.11999999989E+02  0.12000000000E+02  0.51109989000E-03 0. -1.
     -623   -1    0    0    0    0  0.00000000000E+00  0.00000000000E+00  0.42561509872E-11  0.25126700000E+02  0.25126700000E+02 0.  1.
      622    2    1    2    0    0  0.98146154680E-03  0.46292203197E-03  0.11933279486E+02  0.11933370603E+02  0.46620428364E-01 0.  0.
       11    1    1    2    0    0 -0.91184279533E-03  0.25558160458E-03  0.66620696162E-01  0.66629386606E-01  0.51109989000E-03 0. -1.
     -623    1    1    2    0    0 -0.69618751474E-04 -0.71850363655E-03  0.99806475776E-04  0.25126700011E+02  0.25126700000E+02 0.  1.
     -611    1    3    3    0    0 -0.12314519473E-01  0.16757085186E-01  0.52970189825E+01  0.52970692414E+01  0.10000000000E-01 0.  1.
      611    1    3    3    0    0  0.13295981020E-01 -0.16294163154E-01  0.66362605040E+01  0.66363013614E+01  0.10000000000E-01 0. -1.
</event>
<event>
 7   0  0.6206631E-02  0.9118800E+02  0.7818608E-02  0.1180000E+00
       11   -1    0    0    0    0  0.00000000000E+00  0.00000000000E+00  0.11999999989E+02  0.12000000000E+02  0.51109989000E-03 0.  1.
     -623   -1    0    0    0    0  0.00000000000E+00  0.00000000000E+00  0.42561509872E-11  0.25126700000E+02  0.25126700000E+02 0.  1.
      622    2    1    2    0    0  0.80931969280E-02 -0.52632448707E-02  0.11776206247E+02  0.11776502832E+02  0.83019114675E-01 0.  0.
       11    1    1    2    0    0 -0.42440212967E-02 -0.24196482362E-02  0.22344171214E+00  0.22349569652E+00  0.51109989000E-03 0.  1.
     -623    1    1    2    0    0 -0.38491756312E-02  0.76828931068E-02  0.35203015340E-03  0.25126701472E+02  0.25126700000E+02 0.  1.
     -611    1    3    3    0    0  0.34844876236E-01 -0.20148275646E-01  0.92261834910E+01  0.92262767100E+01  0.10000000000E-01 0.  1.
      611    1    3    3    0    0 -0.26751679308E-01  0.14885030775E-01  0.25500227557E+01  0.25502261216E+01  0.10000000000E-01 0. -1.
</event>
<event>
 7   0  0.6206631E-02  0.9118800E+02  0.7818608E-02  0.1180000E+00
       11   -1    0    0    0    0  0.00000000000E+00  0.00000000000E+00  0.11999999989E+02  0.12000000000E+02  0.51109989000E-03 0.  1.
     -623   -1    0    0    0    0  0.00000000000E+00  0.00000000000E+00  0.42561509872E-11  0.25126700000E+02  0.25126700000E+02 0.  1.
      622    2    1    2    0    0  0.13515583568E-02  0.10991374073E-01  0.11868643920E+02  0.11868982618E+02  0.88978886375E-01 0.  0.
       11    1    1    2    0    0 -0.53595293109E-02 -0.26124526820E-02  0.13087892360E+00  0.13101566062E+00  0.51109989000E-03 0.  1.
     -623    1    1    2    0    0  0.40079709540E-02 -0.83789213915E-02  0.47714506741E-03  0.25126701721E+02  0.25126700000E+02 0.  1.
     -611    1    3    3    0    0 -0.24169057084E-01 -0.22151251248E-01  0.84309232877E+01  0.84309929608E+01  0.10000000000E-01 0.  1.
      611    1    3    3    0    0  0.25520615441E-01  0.33142625322E-01  0.34377206327E+01  0.34379896573E+01  0.10000000000E-01 0. -1.
</event>
<event>
 7   0  0.6206631E-02  0.9118800E+02  0.7818608E-02  0.1180000E+00
       11   -1    0    0    0    0  0.00000000000E+00  0.00000000000E+00  0.11999999989E+02  0.12000000000E+02  0.51109989000E-03 0.  1.
     -623   -1    0    0    0    0  0.00000000000E+00  0.00000000000E+00  0.42561509872E-11  0.25126700000E+02  0.25126700000E+02 0. -1.
      622    2    1    2    0    0 -0.14480360920E-01  0.17137316088E-01  0.69068249252E+01  0.69076591802E+01  0.10498301490E+00 0.  0.
       11    1    1    2    0    0  0.17697052034E-01 -0.38822247179E-01  0.50921524723E+01  0.50923312358E+01  0.51109989000E-03 0.  1.
     -623    1    1    2    0    0 -0.32166911148E-02  0.21684931091E-01  0.10225915661E-02  0.25126709584E+02  0.25126700000E+02 0. -1.
     -611    1    3    3    0    0 -0.39799286022E-01  0.40644954609E-01  0.24162913936E+01  0.24169816081E+01  0.10000000000E-01 0. -1.
      611    1    3    3    0    0  0.25318925103E-01 -0.23507638520E-01  0.44905335317E+01  0.44906775720E+01  0.10000000000E-01 0.  1.
</event>
<event>
 7   0  0.6206631E-02  0.9118800E+02  0.7818608E-02  0.1180000E+00
       11   -1    0    0    0    0  0.00000000000E+00  0.00000000000E+00  0.11999999989E+02  0.12000000000E+02  0.51109989000E-03 0.  1.
     -623   -1    0    0    0    0  0.00000000000E+00  0.00000000000E+00  0.42561509872E-11  0.25126700000E+02  0.25126700000E+02 0.  1.
      622    2    1    2    0    0  0.20249369201E-02 -0.14620957339E-03  0.11980267784E+02  0.11980496596E+02  0.74016161379E-01 0.  0.
       11    1    1    2    0    0 -0.59922579890E-02  0.35180397038E-02  0.18215788684E-01  0.19502818763E-01  0.51109989000E-03 0.  1.
     -623    1    1    2    0    0  0.39673210690E-02 -0.33718301304E-02  0.15164165454E-02  0.25126700585E+02  0.25126700000E+02 0.  1.
     -611    1    3    3    0    0 -0.23405056986E-01 -0.23210204655E-01  0.77932858176E+01  0.77933619411E+01  0.10000000000E-01 0.  1.
      611    1    3    3    0    0  0.25429993906E-01  0.23063995082E-01  0.41869819663E+01  0.41871346549E+01  0.10000000000E-01 0. -1.
</event>
<event>
 7   0  0.6206631E-02  0.9118800E+02  0.7818608E-02  0.1180000E+00
       11   -1    0    0    0    0  0.00000000000E+00  0.00000000000E+00  0.11999999989E+02  0.12000000000E+02  0.51109989000E-03 0. -1.
     -623   -1    0    0    0    0  0.00000000000E+00  0.00000000000E+00  0.42561509872E-11  0.25126700000E+02  0.25126700000E+02 0.  1.
      622    2    1    2    0    0  0.41912809667E-03  0.16995031675E-02  0.11995925871E+02  0.11996185992E+02  0.78979621795E-01 0.  0.
       11    1    1    2    0    0 -0.19968108886E-02 -0.13740216424E-02  0.28999383666E-02  0.38139290595E-02  0.51109989000E-03 0. -1.
     -623    1    1    2    0    0  0.15776827919E-02 -0.32548152512E-03  0.11741795742E-02  0.25126700079E+02  0.25126700000E+02 0.  1.
     -611    1    3    3    0    0  0.10411356880E-02 -0.34795277231E-02  0.22206120604E+00  0.22231592454E+00  0.10000000000E-01 0. -1.
      611    1    3    3    0    0 -0.62200759130E-03  0.51790308906E-02  0.11773864665E+02  0.11773870067E+02  0.10000000000E-01 0. -1.
</event>
<event>
 7   0  0.6206631E-02  0.9118800E+02  0.7818608E-02  0.1180000E+00
       11   -1    0    0    0    0  0.00000000000E+00  0.00000000000E+00  0.11999999989E+02  0.12000000000E+02  0.51109989000E-03 0.  1.
     -623   -1    0    0    0    0  0.00000000000E+00  0.00000000000E+00  0.42561509872E-11  0.25126700000E+02  0.25126700000E+02 0.  1.
      622    2    1    2    0    0  0.16713095013E+00  0.57017277063E-01  0.85030153311E+01  0.85054243020E+01  0.98939943963E-01 0.  0.
       11    1    1    2    0    0 -0.14979631829E+00 -0.11223363429E+00  0.34894913811E+01  0.34945079318E+01  0.51109989000E-03 0.  1.
     -623    1    1    2    0    0 -0.17334631835E-01  0.55216357230E-01  0.74932769605E-02  0.25126767766E+02  0.25126700000E+02 0.  1.
     -611    1    3    3    0    0  0.15105411074E-01 -0.16871891722E-01  0.21854364220E+01  0.21855766262E+01  0.10000000000E-01 0. -1.
      611    1    3    3    0    0  0.15202553905E+00  0.73889168785E-01  0.63175789090E+01  0.63198476758E+01  0.10000000000E-01 0.  1.
</event>
<event>
 7   0  0.6206631E-02  0.9118800E+02  0.7818608E-02  0.1180000E+00
       11   -1    0    0    0    0  0.00000000000E+00  0.00000000000E+00  0.11999999989E+02  0.12000000000E+02  0.51109989000E-03 0. -1.
     -623   -1    0    0    0    0  0.00000000000E+00  0.00000000000E+00  0.42561509872E-11  0.25126700000E+02  0.25126700000E+02 0. -1.
      622    2    1    2    0    0  0.26716350215E-01  0.85524916223E-02  0.10952916255E+02  0.10953392360E+02  0.98197706451E-01 0.  0.
       11    1    1    2    0    0 -0.25397960329E-01 -0.66244309021E-02  0.10462782126E+01  0.10466075190E+01  0.51109989000E-03 0. -1.
     -623    1    1    2    0    0 -0.13183898860E-02 -0.19280607202E-02  0.80552177824E-03  0.25126700121E+02  0.25126700000E+02 0. -1.
     -611    1    3    3    0    0  0.34311850457E-02 -0.36096469797E-01  0.21691912227E+01  0.21695172939E+01  0.10000000000E-01 0.  1.
      611    1    3    3    0    0  0.23285165170E-01  0.44648961419E-01  0.87837250321E+01  0.87838750656E+01  0.10000000000E-01 0. -1.
</event>
<event>
 7   0  0.6206631E-02  0.9118800E+02  0.7818608E-02  0.1180000E+00
       11   -1    0    0    0    0  0.00000000000E+00  0.00000000000E+00  0.11999999989E+02  0.12000000000E+02  0.51109989000E-03 0.  1.
     -623   -1    0    0    0    0  0.00000000000E+00  0.00000000000E+00  0.42561509872E-11  0.25126700000E+02  0.25126700000E+02 0.  1.
      622    2    1    2    0    0 -0.14651122479E-01 -0.42715176563E-03  0.11445740532E+02  0.11446330539E+02  0.11528940889E+00 0.  0.
       11    1    1    2    0    0  0.44520808541E-02 -0.14936225414E-01  0.55344303324E+00  0.55366268081E+00  0.51109989000E-03 0.  1.
     -623    1    1    2    0    0  0.10199041625E-01  0.15363377179E-01  0.81642388382E-03  0.25126706780E+02  0.25126700000E+02 0.  1.
     -611    1    3    3    0    0 -0.17307563729E-02  0.37190877513E-01  0.14691303400E+01  0.14696360477E+01  0.10000000000E-01 0. -1.
      611    1    3    3    0    0 -0.12920366106E-01 -0.37618029279E-01  0.99766101920E+01  0.99766944914E+01  0.10000000000E-01 0.  1.
</event>
<event>
 7   0  0.6206631E-02  0.9118800E+02  0.7818608E-02  0.1180000E+00
       11   -1    0    0    0    0  0.00000000000E+00  0.00000000000E+00  0.11999999989E+02  0.12000000000E+02  0.51109989000E-03 0. -1.
     -623   -1    0    0    0    0  0.00000000000E+00  0.00000000000E+00  0.42561509872E-11  0.25126700000E+02  0.25126700000E+02 0. -1.
      622    2    1    2    0    0  0.42689969626E-02  0.65369302385E-02  0.11352033821E+02  0.11352310555E+02  0.78880350243E-01 0.  0.
       11    1    1    2    0    0 -0.75666015999E-02  0.14300022039E-01  0.64747828861E+00  0.64768058449E+00  0.51109989000E-03 0. -1.
     -623    1    1    2    0    0  0.32976046374E-02 -0.20836952277E-01  0.48787997661E-03  0.25126708861E+02  0.25126700000E+02 0. -1.
     -611    1    3    3    0    0  0.15025550019E-01 -0.32495361360E-01  0.47913411659E+01  0.47914853525E+01  0.10000000000E-01 0.  1.
      611    1    3    3    0    0 -0.10756553056E-01  0.39032291599E-01  0.65606926547E+01  0.65608252022E+01  0.10000000000E-01 0. -1.
</event>
<event>
 7   0  0.6206631E-02  0.9118800E+02  0.7818608E-02  0.1180000E+00
       11   -1    0    0    0    0  0.00000000000E+00  0.00000000000E+00  0.11999999989E+02  0.12000000000E+02  0.51109989000E-03 0.  1.
     -623   -1    0    0    0    0  0.00000000000E+00  0.00000000000E+00  0.42561509872E-11  0.25126700000E+02  0.25126700000E+02 0. -1.
      622    2    1    2    0    0  0.22466225808E-02  0.23722326702E-02  0.11979987991E+02  0.11980397536E+02  0.99005863984E-01 0.  0.
       11    1    1    2    0    0  0.38314911594E-02 -0.57567593920E-02  0.18333980249E-01  0.19601445306E-01  0.51109989000E-03 0.  1.
     -623    1    1    2    0    0 -0.60781137402E-02  0.33845267218E-02  0.16780174545E-02  0.25126701019E+02  0.25126700000E+02 0. -1.
     -611    1    3    3    0    0 -0.28371526155E-01  0.27643678834E-01  0.26067344818E+01  0.26070546168E+01  0.10000000000E-01 0. -1.
      611    1    3    3    0    0  0.30618148736E-01 -0.25271446164E-01  0.93732535096E+01  0.93733429188E+01  0.10000000000E-01 0.  1.
</event>
<event>
 7   0  0.6206631E-02  0.9118800E+02  0.7818608E-02  0.1180000E+00
       11   -1    0    0    0    0  0.00000000000E+00  0.00000000000E+00  0.11999999989E+02  0.12000000000E+02  0.51109989000E-03 0.  1.
     -623   -1    0    0    0    0  0.00000000000E+00  0.00000000000E+00  0.42561509872E-11  0.25126700000E+02  0.25126700000E+02 0.  1.
      622    2    1    2    0    0  0.23773689078E-02  0.73217334186E-01  0.18212461866E+01  0.18239828389E+01  0.67891786392E-01 0.  0.
       11    1    1    2    0    0  0.27772838774E-01 -0.10612509346E+00  0.10175385979E+02  0.10175977297E+02  0.51109989000E-03 0.  1.
     -623    1    1    2    0    0 -0.30150207682E-01  0.32907759278E-01  0.33678233541E-02  0.25126739864E+02  0.25126700000E+02 0.  1.
     -611    1    3    3    0    0 -0.19335848032E-01  0.10656560102E-01  0.21890992520E+00  0.22024757125E+00  0.10000000000E-01 0. -1.
      611    1    3    3    0    0  0.21713216940E-01  0.62560774084E-01  0.16023362614E+01  0.16037352677E+01  0.10000000000E-01 0.  1.
</event>
<event>
 7   0  0.6206631E-02  0.9118800E+02  0.7818608E-02  0.1180000E+00
       11   -1    0    0    0    0  0.00000000000E+00  0.00000000000E+00  0.11999999989E+02  0.12000000000E+02  0.51109989000E-03 0.  1.
     -623   -1    0    0    0    0  0.00000000000E+00  0.00000000000E+00  0.42561509872E-11  0.25126700000E+02  0.25126700000E+02 0.  1.
      622    2    1    2    0    0  0.40546259997E-01 -0.40668920977E-01  0.97901812248E+01  0.97910040979E+01  0.11320277823E+00 0.  0.
       11    1    1    2    0    0 -0.27086219165E-01  0.54593839474E-01  0.22081474733E+01  0.22089883828E+01  0.51109989000E-03 0.  1.
     -623    1    1    2    0    0 -0.13460040832E-01 -0.13924918497E-01  0.16712909953E-02  0.25126707519E+02  0.25126700000E+02 0.  1.
     -611    1    3    3    0    0  0.18539696796E-01  0.32668031194E-01  0.16549875267E+01  0.16554439387E+01  0.10000000000E-01 0. -1.
      611    1    3    3    0    0  0.22006563201E-01 -0.73336952171E-01  0.81351936981E+01  0.81355601592E+01  0.10000000000E-01 0.  1.
</event>
<event>
 7   0  0.6206631E-02  0.9118800E+02  0.7818608E-02  0.1180000E+00
       11   -1    0    0    0    0  0.00000000000E+00  0.00000000000E+00  0.11999999989E+02  0.12000000000E+02  0.51109989000E-03 0.  1.
     -623   -1    0    0    0    0  0.00000000000E+00  0.00000000000E+00  0.42561509872E-11  0.25126700000E+02  0.25126700000E+02 0.  1.
      622    2    1    2    0    0 -0.10600005807E+00  0.15982199729E+00  0.25851193666E+01  0.25939869804E+01  0.95641161325E-01 0.  0.
       11    1    1    2    0    0  0.18633673328E+00 -0.22736162608E+00  0.94011952604E+01  0.94057900929E+01  0.51109989000E-03 0.  1.
     -623    1    1    2    0    0 -0.80336675213E-01  0.67539628791E-01  0.13685362111E-01  0.25126922927E+02  0.25126700000E+02 0.  1.
     -611    1    3    3    0    0 -0.35684905409E-03  0.46671357536E-01  0.10413649621E+01  0.10424583096E+01  0.10000000000E-01 0. -1.
      611    1    3    3    0    0 -0.10564320901E+00  0.11315063975E+00  0.15437544045E+01  0.15515286708E+01  0.10000000000E-01 0.  1.
</event>
<event>
 7   0  0.6206631E-02  0.9118800E+02  0.7818608E-02  0.1180000E+00
       11   -1    0    0    0    0  0.00000000000E+00  0.00000000000E+00  0.11999999989E+02  0.12000000000E+02  0.51109989000E-03 0. -1.
     -623   -1    0    0    0    0  0.00000000000E+00  0.00000000000E+00  0.42561509872E-11  0.25126700000E+02  0.25126700000E+02 0. -1.
      622    2    1    2    0    0  0.10193764265E-01  0.25097833860E-01  0.10702250713E+02  0.10702698181E+02  0.94043687121E-01 0.  0.
       11    1    1    2    0    0  0.21829994022E-01 -0.60021640284E-02  0.12970764728E+01  0.12972741468E+01  0.51109989000E-03 0. -1.
     -623    1    1    2    0    0 -0.32023758288E-01 -0.19095669831E-01  0.67280327264E-03  0.25126727672E+02  0.25126700000E+02 0. -1.
     -611    1    3    3    0    0  0.21196145439E-01  0.47857883223E-01  0.94597508296E+01  0.94599009197E+01  0.10000000000E-01 0.  1.
      611    1    3    3    0    0 -0.11002381174E-01 -0.22760049363E-01  0.12424998835E+01  0.12427972613E+01  0.10000000000E-01 0.  1.
</event>
</LesHouchesEvents>
